 *******************************************************************************
 ** Site#: 14498           For non-commercial use only        Version 12.239L **
 *******************************************************************************
 ** Cite this work as: MOPAC2012, James J. P. Stewart, Stewart Computational  **
 ** Chemistry, Version 12.239L web: HTTP://OpenMOPAC.net  Days remaining: 227 **
 *******************************************************************************
 **                                                                           **
 **                                MOPAC2012                                  **
 **                                                                           **
 *******************************************************************************

                            PM3 CALCULATION RESULTS


 *******************************************************************************
 *  CALCULATION DONE:                                Sat Jan 12 10:58:53 2013  *
 *  PM3      - The PM3 Hamiltonian to be used
 *  STATIC   - CALCULATE STATIC FIELD POLARIZABILITIES
 *
 *
 *
 *                 CHARGE ON SYSTEM =     0
 *
 *
 *
 *  T=       - A TIME OF 172800.0 SECONDS REQUESTED
 *  DUMP=N   - RESTART FILE WRITTEN EVERY  7200.000 SECONDS
 *  GNORM=   - EXIT WHEN GRADIENT NORM DROPS BELOW .100    
 *******************************************************************************
 PM3 CHARGE=0 GNORM=0.100  static


   ATOM   CHEMICAL          X               Y               Z
  NUMBER   SYMBOL      (ANGSTROMS)     (ANGSTROMS)     (ANGSTROMS)
 
     1       C         -0.51830000  *   0.92330000  *   0.51840000  *
     2       C          0.81030000  *   1.05380000  *   0.12870000  *
     3       C          1.52680000  *  -0.10000000  *  -0.08360000  *
     4       C          0.85360000  *  -1.31870000  *  -0.02410000  *
     5       C         -0.55230000  *  -1.35310000  *  -0.04170000  *
     6       C         -1.27970000  *  -0.18050000  *   0.15350000  *
     7       C         -2.78320000  *  -0.15290000  *  -0.06490000  *
     8       O         -3.34320000  *  -1.23160000  *  -0.27220000  *
     9       C         -3.64510000  *   1.09670000  *  -0.15670000  *
    10       C         -5.04100000  *   0.97510000  *  -0.36700000  *
    11       C         -5.82810000  *   2.13440000  *  -0.60190000  *
    12       C         -5.29300000  *   3.41420000  *  -0.44970000  *
    13       C         -3.97940000  *   3.51570000  *  -0.06050000  *
    14       C         -3.16410000  *   2.40560000  *  -0.11380000  *
    15       O         -1.89630000  *   2.83300000  *  -0.37350000  *
    16       O         -6.03020000  *   4.52170000  *  -0.76600000  *
    17       C         -5.32140000  *   5.76350000  *  -0.70870000  *
    18       S         -7.49840000  *   2.03680000  *  -1.16740000  *
    19       O         -8.35570000  *   2.61510000  *  -0.14750000  *
    20       O         -7.54280000  *   2.47840000  *  -2.54020000  *
    21       O         -7.87540000  *   0.47050000  *  -1.20420000  *
    22       H         -0.94300000  *   1.74620000  *   1.07810000  *
    23       H          1.28130000  *   2.03420000  *   0.09140000  *
    24       H          2.60530000  *  -0.04330000  *  -0.19810000  *
    25       H          1.42450000  *  -2.24000000  *   0.02650000  *
    26       H         -1.06550000  *  -2.30430000  *  -0.16110000  *
    27       H         -5.50460000  *  -0.01140000  *  -0.41680000  *
    28       H         -3.48230000  *   4.46390000  *   0.10880000  *
    29       H         -1.51120000  *   2.20600000  *  -1.00920000  *
    30       H         -5.00180000  *   5.96580000  *   0.32050000  *
    31       H         -4.45870000  *   5.77040000  *  -1.39080000  *
    32       H         -5.99300000  *   6.56540000  *  -1.01420000  *
    33       H         -8.80220000  *   0.40790000  *  -1.51900000  *
 


          CARTESIAN COORDINATES 

    NO.       ATOM         X         Y         Z

     1         C       -0.5183    0.9233    0.5184
     2         C        0.8103    1.0538    0.1287
     3         C        1.5268   -0.1000   -0.0836
     4         C        0.8536   -1.3187   -0.0241
     5         C       -0.5523   -1.3531   -0.0417
     6         C       -1.2797   -0.1805    0.1535
     7         C       -2.7832   -0.1529   -0.0649
     8         O       -3.3432   -1.2316   -0.2722
     9         C       -3.6451    1.0967   -0.1567
    10         C       -5.0410    0.9751   -0.3670
    11         C       -5.8281    2.1344   -0.6019
    12         C       -5.2930    3.4142   -0.4497
    13         C       -3.9794    3.5157   -0.0605
    14         C       -3.1641    2.4056   -0.1138
    15         O       -1.8963    2.8330   -0.3735
    16         O       -6.0302    4.5217   -0.7660
    17         C       -5.3214    5.7635   -0.7087
    18         S       -7.4984    2.0368   -1.1674
    19         O       -8.3557    2.6151   -0.1475
    20         O       -7.5428    2.4784   -2.5402
    21         O       -7.8754    0.4705   -1.2042
    22         H       -0.9430    1.7462    1.0781
    23         H        1.2813    2.0342    0.0914
    24         H        2.6053   -0.0433   -0.1981
    25         H        1.4245   -2.2400    0.0265
    26         H       -1.0655   -2.3043   -0.1611
    27         H       -5.5046   -0.0114   -0.4168
    28         H       -3.4823    4.4639    0.1088
    29         H       -1.5112    2.2060   -1.0092
    30         H       -5.0018    5.9658    0.3205
    31         H       -4.4587    5.7704   -1.3908
    32         H       -5.9930    6.5654   -1.0142
    33         H       -8.8022    0.4079   -1.5190

  H: (PM3): J. J. P. STEWART, J. COMP. CHEM. 10, 209 (1989).
  C: (PM3): J. J. P. STEWART, J. COMP. CHEM. 10, 209 (1989).
  O: (PM3): J. J. P. STEWART, J. COMP. CHEM. 10, 209 (1989).
  S: (PM3): J. J. P. STEWART, J. COMP. CHEM. 10, 209 (1989).

           Empirical Formula: C14 H12 O6 S  =    33 atoms



      MOLECULAR POINT GROUP   :   C1  


      RHF CALCULATION, NO. OF DOUBLY OCCUPIED LEVELS =   55

      Geometry optimization using EF

          DIAGONAL MATRIX USED AS START HESSIAN

 CYCLE:     1 TIME:   0.079 TIME LEFT:  2.00D  GRAD.:   148.433 HEAT:-133.5461
 CYCLE:     2 TIME:   0.045 TIME LEFT:  2.00D  GRAD.:   109.231 HEAT:-138.1169
 CYCLE:     3 TIME:   0.025 TIME LEFT:  2.00D  GRAD.:   147.825 HEAT:-138.2618
 CYCLE:     4 TIME:   0.024 TIME LEFT:  2.00D  GRAD.:   110.968 HEAT:-141.2359
 CYCLE:     5 TIME:   0.045 TIME LEFT:  2.00D  GRAD.:    84.106 HEAT:-143.1094
 CYCLE:     6 TIME:   0.024 TIME LEFT:  2.00D  GRAD.:    84.112 HEAT:-144.1911
 CYCLE:     7 TIME:   0.023 TIME LEFT:  2.00D  GRAD.:    58.952 HEAT:-145.8647
 CYCLE:     8 TIME:   0.024 TIME LEFT:  2.00D  GRAD.:    68.181 HEAT:-147.0756
 CYCLE:     9 TIME:   0.024 TIME LEFT:  2.00D  GRAD.:    61.884 HEAT:-148.8906
 CYCLE:    10 TIME:   0.025 TIME LEFT:  2.00D  GRAD.:   101.388 HEAT:-149.0820
 CYCLE:    11 TIME:   0.024 TIME LEFT:  2.00D  GRAD.:   116.288 HEAT:-149.6200
 CYCLE:    12 TIME:   0.024 TIME LEFT:  2.00D  GRAD.:   110.010 HEAT:-150.9347
 CYCLE:    13 TIME:   0.025 TIME LEFT:  2.00D  GRAD.:   127.314 HEAT:-151.2441
 CYCLE:    14 TIME:   0.045 TIME LEFT:  2.00D  GRAD.:    84.030 HEAT:-153.6119
 CYCLE:    15 TIME:   0.024 TIME LEFT:  2.00D  GRAD.:    86.350 HEAT:-153.9591
 CYCLE:    16 TIME:   0.023 TIME LEFT:  2.00D  GRAD.:    83.957 HEAT:-154.6666
 CYCLE:    17 TIME:   0.024 TIME LEFT:  2.00D  GRAD.:    85.408 HEAT:-154.9665
 CYCLE:    18 TIME:   0.022 TIME LEFT:  2.00D  GRAD.:    79.203 HEAT:-155.7442
 CYCLE:    19 TIME:   0.024 TIME LEFT:  2.00D  GRAD.:    80.653 HEAT:-156.0711
 CYCLE:    20 TIME:   0.024 TIME LEFT:  2.00D  GRAD.:    54.112 HEAT:-157.3896
 CYCLE:    21 TIME:   0.024 TIME LEFT:  2.00D  GRAD.:    64.030 HEAT:-157.7185
 CYCLE:    22 TIME:   0.025 TIME LEFT:  2.00D  GRAD.:    62.047 HEAT:-158.5608
 CYCLE:    23 TIME:   0.044 TIME LEFT:  2.00D  GRAD.:    67.323 HEAT:-158.9210
 CYCLE:    24 TIME:   0.023 TIME LEFT:  2.00D  GRAD.:    45.989 HEAT:-160.0648
 CYCLE:    25 TIME:   0.023 TIME LEFT:  2.00D  GRAD.:    73.325 HEAT:-160.1867
 CYCLE:    26 TIME:   0.023 TIME LEFT:  2.00D  GRAD.:    29.771 HEAT:-161.9904
 CYCLE:    27 TIME:   0.024 TIME LEFT:  2.00D  GRAD.:    59.699 HEAT:-163.0738
 CYCLE:    28 TIME:   0.025 TIME LEFT:  2.00D  GRAD.:    61.256 HEAT:-165.0526
 CYCLE:    29 TIME:   0.025 TIME LEFT:  2.00D  GRAD.:    85.252 HEAT:-165.7981
 CYCLE:    30 TIME:   0.024 TIME LEFT:  2.00D  GRAD.:    72.222 HEAT:-167.2349
 CYCLE:    31 TIME:   0.043 TIME LEFT:  2.00D  GRAD.:    56.646 HEAT:-168.1352
 CYCLE:    32 TIME:   0.023 TIME LEFT:  2.00D  GRAD.:    35.481 HEAT:-168.9760
 CYCLE:    33 TIME:   0.024 TIME LEFT:  2.00D  GRAD.:    57.469 HEAT:-169.1494
 CYCLE:    34 TIME:   0.023 TIME LEFT:  2.00D  GRAD.:    32.416 HEAT:-169.9584
 CYCLE:    35 TIME:   0.023 TIME LEFT:  2.00D  GRAD.:    39.450 HEAT:-170.3946
 CYCLE:    36 TIME:   0.025 TIME LEFT:  2.00D  GRAD.:    35.949 HEAT:-171.0354
 CYCLE:    37 TIME:   0.024 TIME LEFT:  2.00D  GRAD.:    38.471 HEAT:-171.5239
 CYCLE:    38 TIME:   0.023 TIME LEFT:  2.00D  GRAD.:    45.724 HEAT:-171.6834
 CYCLE:    39 TIME:   0.023 TIME LEFT:  2.00D  GRAD.:    40.341 HEAT:-171.9486
 CYCLE:    40 TIME:   0.023 TIME LEFT:  2.00D  GRAD.:    48.241 HEAT:-172.0359
 CYCLE:    41 TIME:   0.023 TIME LEFT:  2.00D  GRAD.:    25.770 HEAT:-172.5224
 CYCLE:    42 TIME:   0.023 TIME LEFT:  2.00D  GRAD.:    28.164 HEAT:-172.6712
 CYCLE:    43 TIME:   0.023 TIME LEFT:  2.00D  GRAD.:    20.063 HEAT:-172.9197
 CYCLE:    44 TIME:   0.023 TIME LEFT:  2.00D  GRAD.:    26.222 HEAT:-173.1039
 CYCLE:    45 TIME:   0.024 TIME LEFT:  2.00D  GRAD.:    24.064 HEAT:-173.4139
 CYCLE:    46 TIME:   0.024 TIME LEFT:  2.00D  GRAD.:    25.431 HEAT:-173.8243
 CYCLE:    47 TIME:   0.024 TIME LEFT:  2.00D  GRAD.:    23.209 HEAT:-174.0636
 CYCLE:    48 TIME:   0.024 TIME LEFT:  2.00D  GRAD.:    19.458 HEAT:-174.3386
 CYCLE:    49 TIME:   0.023 TIME LEFT:  2.00D  GRAD.:    22.335 HEAT:-174.5569
 CYCLE:    50 TIME:   0.024 TIME LEFT:  2.00D  GRAD.:    22.584 HEAT:-174.8362
 CYCLE:    51 TIME:   0.024 TIME LEFT:  2.00D  GRAD.:    21.348 HEAT:-175.1296
 CYCLE:    52 TIME:   0.024 TIME LEFT:  2.00D  GRAD.:    27.213 HEAT:-175.1855
 CYCLE:    53 TIME:   0.024 TIME LEFT:  2.00D  GRAD.:    16.096 HEAT:-175.4098
 CYCLE:    54 TIME:   0.024 TIME LEFT:  2.00D  GRAD.:    19.423 HEAT:-175.4698
 CYCLE:    55 TIME:   0.023 TIME LEFT:  2.00D  GRAD.:    10.963 HEAT:-175.6634
 CYCLE:    56 TIME:   0.023 TIME LEFT:  2.00D  GRAD.:    11.812 HEAT:-175.8098
 CYCLE:    57 TIME:   0.024 TIME LEFT:  2.00D  GRAD.:    14.176 HEAT:-175.9436
 CYCLE:    58 TIME:   0.024 TIME LEFT:  2.00D  GRAD.:    15.317 HEAT:-176.0793
 CYCLE:    59 TIME:   0.024 TIME LEFT:  2.00D  GRAD.:    16.676 HEAT:-176.1516
 CYCLE:    60 TIME:   0.023 TIME LEFT:  2.00D  GRAD.:    13.917 HEAT:-176.2689
 CYCLE:    61 TIME:   0.023 TIME LEFT:  2.00D  GRAD.:    16.984 HEAT:-176.3520
 CYCLE:    62 TIME:   0.023 TIME LEFT:  2.00D  GRAD.:    12.209 HEAT:-176.4811
 CYCLE:    63 TIME:   0.024 TIME LEFT:  2.00D  GRAD.:    16.663 HEAT:-176.5488
 CYCLE:    64 TIME:   0.023 TIME LEFT:  2.00D  GRAD.:    15.265 HEAT:-176.6316
 CYCLE:    65 TIME:   0.023 TIME LEFT:  2.00D  GRAD.:    13.240 HEAT:-176.6921
 CYCLE:    66 TIME:   0.022 TIME LEFT:  2.00D  GRAD.:    11.442 HEAT:-176.7729
 CYCLE:    67 TIME:   0.023 TIME LEFT:  2.00D  GRAD.:     7.727 HEAT:-176.8636
 CYCLE:    68 TIME:   0.024 TIME LEFT:  2.00D  GRAD.:    12.453 HEAT:-176.9465
 CYCLE:    69 TIME:   0.022 TIME LEFT:  2.00D  GRAD.:     9.763 HEAT:-177.0337
 CYCLE:    70 TIME:   0.024 TIME LEFT:  2.00D  GRAD.:    12.212 HEAT:-177.0881
 CYCLE:    71 TIME:   0.023 TIME LEFT:  2.00D  GRAD.:    11.982 HEAT:-177.1561
 CYCLE:    72 TIME:   0.023 TIME LEFT:  2.00D  GRAD.:    12.027 HEAT:-177.2687
 CYCLE:    73 TIME:   0.022 TIME LEFT:  2.00D  GRAD.:     9.076 HEAT:-177.3764
 CYCLE:    74 TIME:   0.024 TIME LEFT:  2.00D  GRAD.:    10.340 HEAT:-177.4719
 CYCLE:    75 TIME:   0.023 TIME LEFT:  2.00D  GRAD.:     8.804 HEAT:-177.5368
 CYCLE:    76 TIME:   0.023 TIME LEFT:  2.00D  GRAD.:     8.468 HEAT:-177.6079
 CYCLE:    77 TIME:   0.023 TIME LEFT:  2.00D  GRAD.:     8.021 HEAT:-177.6850
 CYCLE:    78 TIME:   0.022 TIME LEFT:  2.00D  GRAD.:     8.885 HEAT:-177.7423
 CYCLE:    79 TIME:   0.023 TIME LEFT:  2.00D  GRAD.:     9.399 HEAT:-177.8032
 CYCLE:    80 TIME:   0.024 TIME LEFT:  2.00D  GRAD.:    10.049 HEAT:-177.8783
 CYCLE:    81 TIME:   0.023 TIME LEFT:  2.00D  GRAD.:     8.703 HEAT:-177.9411
 CYCLE:    82 TIME:   0.023 TIME LEFT:  2.00D  GRAD.:     8.208 HEAT:-178.0164
 CYCLE:    83 TIME:   0.024 TIME LEFT:  2.00D  GRAD.:    11.581 HEAT:-178.1451
 CYCLE:    84 TIME:   0.022 TIME LEFT:  2.00D  GRAD.:     9.929 HEAT:-178.2617
 CYCLE:    85 TIME:   0.023 TIME LEFT:  2.00D  GRAD.:     8.147 HEAT:-178.3958
 CYCLE:    86 TIME:   0.024 TIME LEFT:  2.00D  GRAD.:     9.545 HEAT:-178.5124
 CYCLE:    87 TIME:   0.023 TIME LEFT:  2.00D  GRAD.:    15.655 HEAT:-178.5183
 CYCLE:    88 TIME:   0.024 TIME LEFT:  2.00D  GRAD.:    12.824 HEAT:-178.5847
 CYCLE:    89 TIME:   0.023 TIME LEFT:  2.00D  GRAD.:     7.895 HEAT:-178.6754
 CYCLE:    90 TIME:   0.022 TIME LEFT:  2.00D  GRAD.:     7.988 HEAT:-178.7322
 CYCLE:    91 TIME:   0.023 TIME LEFT:  2.00D  GRAD.:     6.835 HEAT:-178.7889
 CYCLE:    92 TIME:   0.023 TIME LEFT:  2.00D  GRAD.:     4.620 HEAT:-178.8328
 CYCLE:    93 TIME:   0.022 TIME LEFT:  2.00D  GRAD.:     5.181 HEAT:-178.8685
 CYCLE:    94 TIME:   0.023 TIME LEFT:  2.00D  GRAD.:     4.946 HEAT:-178.8925
 CYCLE:    95 TIME:   0.022 TIME LEFT:  2.00D  GRAD.:     3.476 HEAT:-178.9139
 CYCLE:    96 TIME:   0.022 TIME LEFT:  2.00D  GRAD.:     2.854 HEAT:-178.9347
 CYCLE:    97 TIME:   0.024 TIME LEFT:  2.00D  GRAD.:     3.686 HEAT:-178.9492
 CYCLE:    98 TIME:   0.021 TIME LEFT:  2.00D  GRAD.:     2.806 HEAT:-178.9577
 CYCLE:    99 TIME:   0.023 TIME LEFT:  2.00D  GRAD.:     3.059 HEAT:-178.9674
 CYCLE:   100 TIME:   0.023 TIME LEFT:  2.00D  GRAD.:     3.344 HEAT:-178.9778
 CYCLE:   101 TIME:   0.022 TIME LEFT:  2.00D  GRAD.:     2.875 HEAT:-178.9857
 CYCLE:   102 TIME:   0.022 TIME LEFT:  2.00D  GRAD.:     2.349 HEAT:-178.9956
 CYCLE:   103 TIME:   0.022 TIME LEFT:  2.00D  GRAD.:     2.058 HEAT:-178.9998
 CYCLE:   104 TIME:   0.024 TIME LEFT:  2.00D  GRAD.:     3.005 HEAT:-179.0057
 CYCLE:   105 TIME:   0.022 TIME LEFT:  2.00D  GRAD.:     2.400 HEAT:-179.0113
 CYCLE:   106 TIME:   0.024 TIME LEFT:  2.00D  GRAD.:     2.476 HEAT:-179.0232
 CYCLE:   107 TIME:   0.023 TIME LEFT:  2.00D  GRAD.:     2.415 HEAT:-179.0287
 CYCLE:   108 TIME:   0.024 TIME LEFT:  2.00D  GRAD.:     4.110 HEAT:-179.0400
 CYCLE:   109 TIME:   0.022 TIME LEFT:  2.00D  GRAD.:     2.731 HEAT:-179.0529
 CYCLE:   110 TIME:   0.063 TIME LEFT:  2.00D  GRAD.:     2.024 HEAT:-179.0571
 CYCLE:   111 TIME:   0.024 TIME LEFT:  2.00D  GRAD.:     1.525 HEAT:-179.0636
 CYCLE:   112 TIME:   0.024 TIME LEFT:  2.00D  GRAD.:     1.745 HEAT:-179.0696
 CYCLE:   113 TIME:   0.024 TIME LEFT:  2.00D  GRAD.:     1.517 HEAT:-179.0729
 CYCLE:   114 TIME:   0.024 TIME LEFT:  2.00D  GRAD.:     1.710 HEAT:-179.0765
 CYCLE:   115 TIME:   0.024 TIME LEFT:  2.00D  GRAD.:     1.992 HEAT:-179.0819
 CYCLE:   116 TIME:   0.023 TIME LEFT:  2.00D  GRAD.:     2.253 HEAT:-179.0867
 CYCLE:   117 TIME:   0.022 TIME LEFT:  2.00D  GRAD.:     2.202 HEAT:-179.0925
 CYCLE:   118 TIME:   0.023 TIME LEFT:  2.00D  GRAD.:     2.380 HEAT:-179.0985
 CYCLE:   119 TIME:   0.022 TIME LEFT:  2.00D  GRAD.:     2.314 HEAT:-179.1052
 CYCLE:   120 TIME:   0.023 TIME LEFT:  2.00D  GRAD.:     2.188 HEAT:-179.1124
 CYCLE:   121 TIME:   0.022 TIME LEFT:  2.00D  GRAD.:     1.875 HEAT:-179.1185
 CYCLE:   122 TIME:   0.023 TIME LEFT:  2.00D  GRAD.:     1.546 HEAT:-179.1244
 CYCLE:   123 TIME:   0.023 TIME LEFT:  2.00D  GRAD.:     1.618 HEAT:-179.1290
 CYCLE:   124 TIME:   0.024 TIME LEFT:  2.00D  GRAD.:     1.544 HEAT:-179.1342
 CYCLE:   125 TIME:   0.023 TIME LEFT:  2.00D  GRAD.:     1.425 HEAT:-179.1375
 CYCLE:   126 TIME:   0.024 TIME LEFT:  2.00D  GRAD.:     1.717 HEAT:-179.1407
 CYCLE:   127 TIME:   0.024 TIME LEFT:  2.00D  GRAD.:     1.690 HEAT:-179.1442
 CYCLE:   128 TIME:   0.023 TIME LEFT:  2.00D  GRAD.:     1.539 HEAT:-179.1487
 CYCLE:   129 TIME:   0.022 TIME LEFT:  2.00D  GRAD.:     1.739 HEAT:-179.1538
 CYCLE:   130 TIME:   0.023 TIME LEFT:  2.00D  GRAD.:     1.135 HEAT:-179.1565
 CYCLE:   131 TIME:   0.024 TIME LEFT:  2.00D  GRAD.:     1.256 HEAT:-179.1588
 CYCLE:   132 TIME:   0.024 TIME LEFT:  2.00D  GRAD.:     1.388 HEAT:-179.1614
 CYCLE:   133 TIME:   0.023 TIME LEFT:  2.00D  GRAD.:     1.175 HEAT:-179.1640
 CYCLE:   134 TIME:   0.025 TIME LEFT:  2.00D  GRAD.:     1.432 HEAT:-179.1676
 CYCLE:   135 TIME:   0.022 TIME LEFT:  2.00D  GRAD.:     2.339 HEAT:-179.1709
 CYCLE:   136 TIME:   0.024 TIME LEFT:  2.00D  GRAD.:     2.262 HEAT:-179.1763
 CYCLE:   137 TIME:   0.024 TIME LEFT:  2.00D  GRAD.:     2.286 HEAT:-179.1842
 CYCLE:   138 TIME:   0.024 TIME LEFT:  2.00D  GRAD.:     2.760 HEAT:-179.1966
 CYCLE:   139 TIME:   0.024 TIME LEFT:  2.00D  GRAD.:     3.784 HEAT:-179.2117
 CYCLE:   140 TIME:   0.022 TIME LEFT:  2.00D  GRAD.:     3.641 HEAT:-179.2277
 CYCLE:   141 TIME:   0.025 TIME LEFT:  2.00D  GRAD.:     5.048 HEAT:-179.2424
 CYCLE:   142 TIME:   0.021 TIME LEFT:  2.00D  GRAD.:     4.462 HEAT:-179.2567
 CYCLE:   143 TIME:   0.023 TIME LEFT:  2.00D  GRAD.:     4.439 HEAT:-179.2719
 CYCLE:   144 TIME:   0.022 TIME LEFT:  2.00D  GRAD.:     3.898 HEAT:-179.2864
 CYCLE:   145 TIME:   0.023 TIME LEFT:  2.00D  GRAD.:     3.542 HEAT:-179.3058
 CYCLE:   146 TIME:   0.024 TIME LEFT:  2.00D  GRAD.:     5.557 HEAT:-179.3432
 CYCLE:   147 TIME:   0.023 TIME LEFT:  2.00D  GRAD.:     7.005 HEAT:-179.3450
 CYCLE:   148 TIME:   0.024 TIME LEFT:  2.00D  GRAD.:     9.133 HEAT:-179.3861
 CYCLE:   149 TIME:   0.023 TIME LEFT:  2.00D  GRAD.:     6.750 HEAT:-179.4242
 CYCLE:   150 TIME:   0.022 TIME LEFT:  2.00D  GRAD.:    10.751 HEAT:-179.4883
 CYCLE:   151 TIME:   0.023 TIME LEFT:  2.00D  GRAD.:    10.638 HEAT:-179.5180
 CYCLE:   152 TIME:   0.024 TIME LEFT:  2.00D  GRAD.:    12.332 HEAT:-179.6385
 CYCLE:   153 TIME:   0.023 TIME LEFT:  2.00D  GRAD.:     9.877 HEAT:-179.7020
 CYCLE:   154 TIME:   0.024 TIME LEFT:  2.00D  GRAD.:    11.833 HEAT:-179.7761
 CYCLE:   155 TIME:   0.042 TIME LEFT:  2.00D  GRAD.:    17.379 HEAT:-179.8416
 CYCLE:   156 TIME:   0.022 TIME LEFT:  2.00D  GRAD.:     5.937 HEAT:-179.9450
 CYCLE:   157 TIME:   0.023 TIME LEFT:  2.00D  GRAD.:     3.690 HEAT:-180.0036
 CYCLE:   158 TIME:   0.022 TIME LEFT:  2.00D  GRAD.:     5.469 HEAT:-180.0640
 CYCLE:   159 TIME:   0.023 TIME LEFT:  2.00D  GRAD.:     5.471 HEAT:-180.1460
 CYCLE:   160 TIME:   0.024 TIME LEFT:  2.00D  GRAD.:     5.906 HEAT:-180.2409
 CYCLE:   161 TIME:   0.024 TIME LEFT:  2.00D  GRAD.:    11.218 HEAT:-180.3316
 CYCLE:   162 TIME:   0.022 TIME LEFT:  2.00D  GRAD.:    10.632 HEAT:-180.3873
 CYCLE:   163 TIME:   0.023 TIME LEFT:  2.00D  GRAD.:     8.029 HEAT:-180.4390
 CYCLE:   164 TIME:   0.024 TIME LEFT:  2.00D  GRAD.:     9.580 HEAT:-180.4919
 CYCLE:   165 TIME:   0.023 TIME LEFT:  2.00D  GRAD.:     8.466 HEAT:-180.5197
 CYCLE:   166 TIME:   0.023 TIME LEFT:  2.00D  GRAD.:     9.668 HEAT:-180.5541
 CYCLE:   167 TIME:   0.022 TIME LEFT:  2.00D  GRAD.:     7.734 HEAT:-180.5964
 CYCLE:   168 TIME:   0.023 TIME LEFT:  2.00D  GRAD.:     4.637 HEAT:-180.6202
 CYCLE:   169 TIME:   0.023 TIME LEFT:  2.00D  GRAD.:     4.783 HEAT:-180.6429
 CYCLE:   170 TIME:   0.044 TIME LEFT:  2.00D  GRAD.:     5.811 HEAT:-180.6629
 CYCLE:   171 TIME:   0.022 TIME LEFT:  2.00D  GRAD.:     5.059 HEAT:-180.6765
 CYCLE:   172 TIME:   0.023 TIME LEFT:  2.00D  GRAD.:     5.040 HEAT:-180.6897
 CYCLE:   173 TIME:   0.023 TIME LEFT:  2.00D  GRAD.:     5.958 HEAT:-180.6944
 CYCLE:   174 TIME:   0.021 TIME LEFT:  2.00D  GRAD.:     4.788 HEAT:-180.7106
 CYCLE:   175 TIME:   0.022 TIME LEFT:  2.00D  GRAD.:     3.138 HEAT:-180.7177
 CYCLE:   176 TIME:   0.021 TIME LEFT:  2.00D  GRAD.:     2.608 HEAT:-180.7245
 CYCLE:   177 TIME:   0.023 TIME LEFT:  2.00D  GRAD.:     2.038 HEAT:-180.7316
 CYCLE:   178 TIME:   0.024 TIME LEFT:  2.00D  GRAD.:     3.100 HEAT:-180.7413
 CYCLE:   179 TIME:   0.023 TIME LEFT:  2.00D  GRAD.:     2.858 HEAT:-180.7471
 CYCLE:   180 TIME:   0.022 TIME LEFT:  2.00D  GRAD.:     2.214 HEAT:-180.7541
 CYCLE:   181 TIME:   0.024 TIME LEFT:  2.00D  GRAD.:     2.923 HEAT:-180.7574
 CYCLE:   182 TIME:   0.021 TIME LEFT:  2.00D  GRAD.:     1.858 HEAT:-180.7621
 CYCLE:   183 TIME:   0.024 TIME LEFT:  2.00D  GRAD.:     1.362 HEAT:-180.7658
 CYCLE:   184 TIME:   0.023 TIME LEFT:  2.00D  GRAD.:     1.422 HEAT:-180.7677
 CYCLE:   185 TIME:   0.024 TIME LEFT:  2.00D  GRAD.:     3.065 HEAT:-180.7678
 CYCLE:   186 TIME:   0.022 TIME LEFT:  2.00D  GRAD.:     1.668 HEAT:-180.7714
 CYCLE:   187 TIME:   0.024 TIME LEFT:  2.00D  GRAD.:     1.082 HEAT:-180.7728
 CYCLE:   188 TIME:   0.023 TIME LEFT:  2.00D  GRAD.:     0.842 HEAT:-180.7745
 CYCLE:   189 TIME:   0.025 TIME LEFT:  2.00D  GRAD.:     1.811 HEAT:-180.7751
 CYCLE:   190 TIME:   0.024 TIME LEFT:  2.00D  GRAD.:     1.004 HEAT:-180.7786
 CYCLE:   191 TIME:   0.022 TIME LEFT:  2.00D  GRAD.:     0.938 HEAT:-180.7797
 CYCLE:   192 TIME:   0.025 TIME LEFT:  2.00D  GRAD.:     1.199 HEAT:-180.7811
 CYCLE:   193 TIME:   0.024 TIME LEFT:  2.00D  GRAD.:     1.056 HEAT:-180.7831
 CYCLE:   194 TIME:   0.024 TIME LEFT:  2.00D  GRAD.:     1.386 HEAT:-180.7863
 CYCLE:   195 TIME:   0.022 TIME LEFT:  2.00D  GRAD.:     1.582 HEAT:-180.7879
 CYCLE:   196 TIME:   0.023 TIME LEFT:  2.00D  GRAD.:     1.358 HEAT:-180.7906
 CYCLE:   197 TIME:   0.023 TIME LEFT:  2.00D  GRAD.:     1.159 HEAT:-180.7920
 CYCLE:   198 TIME:   0.023 TIME LEFT:  2.00D  GRAD.:     0.862 HEAT:-180.7930
 CYCLE:   199 TIME:   0.025 TIME LEFT:  2.00D  GRAD.:     1.047 HEAT:-180.7943
 CYCLE:   200 TIME:   0.023 TIME LEFT:  2.00D  GRAD.:     1.300 HEAT:-180.7956
 CYCLE:   201 TIME:   0.024 TIME LEFT:  2.00D  GRAD.:     1.575 HEAT:-180.7981
 CYCLE:   202 TIME:   0.023 TIME LEFT:  2.00D  GRAD.:     1.331 HEAT:-180.7998
 CYCLE:   203 TIME:   0.024 TIME LEFT:  2.00D  GRAD.:     1.802 HEAT:-180.8024
 CYCLE:   204 TIME:   0.024 TIME LEFT:  2.00D  GRAD.:     1.694 HEAT:-180.8055
 CYCLE:   205 TIME:   0.023 TIME LEFT:  2.00D  GRAD.:     1.253 HEAT:-180.8088
 CYCLE:   206 TIME:   0.023 TIME LEFT:  2.00D  GRAD.:     1.507 HEAT:-180.8132
 CYCLE:   207 TIME:   0.024 TIME LEFT:  2.00D  GRAD.:     1.364 HEAT:-180.8170
 CYCLE:   208 TIME:   0.025 TIME LEFT:  2.00D  GRAD.:     2.827 HEAT:-180.8185
 CYCLE:   209 TIME:   0.024 TIME LEFT:  2.00D  GRAD.:     1.277 HEAT:-180.8233
 CYCLE:   210 TIME:   0.023 TIME LEFT:  2.00D  GRAD.:     1.110 HEAT:-180.8250
 CYCLE:   211 TIME:   0.024 TIME LEFT:  2.00D  GRAD.:     1.106 HEAT:-180.8290
 CYCLE:   212 TIME:   0.024 TIME LEFT:  2.00D  GRAD.:     1.448 HEAT:-180.8316
 CYCLE:   213 TIME:   0.022 TIME LEFT:  2.00D  GRAD.:     1.258 HEAT:-180.8333
 CYCLE:   214 TIME:   0.024 TIME LEFT:  2.00D  GRAD.:     1.482 HEAT:-180.8362
 CYCLE:   215 TIME:   0.023 TIME LEFT:  2.00D  GRAD.:     1.692 HEAT:-180.8383
 CYCLE:   216 TIME:   0.024 TIME LEFT:  2.00D  GRAD.:     1.761 HEAT:-180.8401
 CYCLE:   217 TIME:   0.023 TIME LEFT:  2.00D  GRAD.:     1.165 HEAT:-180.8413
 CYCLE:   218 TIME:   0.024 TIME LEFT:  2.00D  GRAD.:     0.905 HEAT:-180.8430
 CYCLE:   219 TIME:   0.024 TIME LEFT:  2.00D  GRAD.:     0.789 HEAT:-180.8442
 CYCLE:   220 TIME:   0.023 TIME LEFT:  2.00D  GRAD.:     0.826 HEAT:-180.8452
 CYCLE:   221 TIME:   0.024 TIME LEFT:  2.00D  GRAD.:     0.992 HEAT:-180.8468
 CYCLE:   222 TIME:   0.024 TIME LEFT:  2.00D  GRAD.:     1.220 HEAT:-180.8483
 CYCLE:   223 TIME:   0.024 TIME LEFT:  2.00D  GRAD.:     0.894 HEAT:-180.8502
 CYCLE:   224 TIME:   0.023 TIME LEFT:  2.00D  GRAD.:     0.763 HEAT:-180.8507
 CYCLE:   225 TIME:   0.024 TIME LEFT:  2.00D  GRAD.:     0.622 HEAT:-180.8511
 CYCLE:   226 TIME:   0.022 TIME LEFT:  2.00D  GRAD.:     0.441 HEAT:-180.8515
 CYCLE:   227 TIME:   0.024 TIME LEFT:  2.00D  GRAD.:     0.955 HEAT:-180.8513
 CYCLE:   228 TIME:   0.024 TIME LEFT:  2.00D  GRAD.:     0.460 HEAT:-180.8519
 CYCLE:   229 TIME:   0.023 TIME LEFT:  2.00D  GRAD.:     0.343 HEAT:-180.8521
 CYCLE:   230 TIME:   0.024 TIME LEFT:  2.00D  GRAD.:     0.441 HEAT:-180.8526
 CYCLE:   231 TIME:   0.023 TIME LEFT:  2.00D  GRAD.:     0.407 HEAT:-180.8528
 CYCLE:   232 TIME:   0.049 TIME LEFT:  2.00D  GRAD.:     1.500 HEAT:-180.8499
 CYCLE:   233 TIME:   0.023 TIME LEFT:  2.00D  GRAD.:     0.505 HEAT:-180.8533
 CYCLE:   234 TIME:   0.025 TIME LEFT:  2.00D  GRAD.:     0.429 HEAT:-180.8528
 CYCLE:   235 TIME:   0.023 TIME LEFT:  2.00D  GRAD.:     0.407 HEAT:-180.8532
 CYCLE:   236 TIME:   0.024 TIME LEFT:  2.00D  GRAD.:     0.861 HEAT:-180.8533
 CYCLE:   237 TIME:   0.024 TIME LEFT:  2.00D  GRAD.:     0.422 HEAT:-180.8536
 CYCLE:   238 TIME:   0.023 TIME LEFT:  2.00D  GRAD.:     0.464 HEAT:-180.8536
 CYCLE:   239 TIME:   0.024 TIME LEFT:  2.00D  GRAD.:     0.661 HEAT:-180.8533
 CYCLE:   240 TIME:   0.023 TIME LEFT:  2.00D  GRAD.:     0.473 HEAT:-180.8539
 CYCLE:   241 TIME:   0.025 TIME LEFT:  2.00D  GRAD.:     1.968 HEAT:-180.8493
 CYCLE:   242 TIME:   0.024 TIME LEFT:  2.00D  GRAD.:     0.425 HEAT:-180.8545
 CYCLE:   243 TIME:   0.023 TIME LEFT:  2.00D  GRAD.:     0.375 HEAT:-180.8545
 CYCLE:   244 TIME:   0.023 TIME LEFT:  2.00D  GRAD.:     0.541 HEAT:-180.8545
 CYCLE:   245 TIME:   0.023 TIME LEFT:  2.00D  GRAD.:     0.315 HEAT:-180.8549
 CYCLE:   246 TIME:   0.024 TIME LEFT:  2.00D  GRAD.:     0.489 HEAT:-180.8556
 CYCLE:   247 TIME:   0.023 TIME LEFT:  2.00D  GRAD.:     0.345 HEAT:-180.8558
 CYCLE:   248 TIME:   0.024 TIME LEFT:  2.00D  GRAD.:     0.376 HEAT:-180.8560
 CYCLE:   249 TIME:   0.022 TIME LEFT:  2.00D  GRAD.:     0.292 HEAT:-180.8563
 CYCLE:   250 TIME:   0.061 TIME LEFT:  2.00D  GRAD.:     3.319 HEAT:-180.8526
 CYCLE:   251 TIME:   0.024 TIME LEFT:  2.00D  GRAD.:     1.554 HEAT:-180.8550
 CYCLE:   252 TIME:   0.024 TIME LEFT:  2.00D  GRAD.:     1.629 HEAT:-180.8552
 CYCLE:   253 TIME:   0.024 TIME LEFT:  2.00D  GRAD.:     0.600 HEAT:-180.8571
 CYCLE:   254 TIME:   0.024 TIME LEFT:  2.00D  GRAD.:     0.325 HEAT:-180.8575
 CYCLE:   255 TIME:   0.022 TIME LEFT:  2.00D  GRAD.:     0.353 HEAT:-180.8578
 CYCLE:   256 TIME:   0.061 TIME LEFT:  2.00D  GRAD.:     2.765 HEAT:-180.8551
 CYCLE:   257 TIME:   0.024 TIME LEFT:  2.00D  GRAD.:     1.589 HEAT:-180.8570
 CYCLE:   258 TIME:   0.023 TIME LEFT:  2.00D  GRAD.:     0.777 HEAT:-180.8594
 CYCLE:   259 TIME:   0.023 TIME LEFT:  2.00D  GRAD.:     0.489 HEAT:-180.8599
 CYCLE:   260 TIME:   0.024 TIME LEFT:  2.00D  GRAD.:     0.751 HEAT:-180.8603
 CYCLE:   261 TIME:   0.023 TIME LEFT:  2.00D  GRAD.:     0.813 HEAT:-180.8612
 CYCLE:   262 TIME:   0.027 TIME LEFT:  2.00D  GRAD.:     1.643 HEAT:-180.8607
 CYCLE:   263 TIME:   0.023 TIME LEFT:  2.00D  GRAD.:     0.754 HEAT:-180.8623
 CYCLE:   264 TIME:   0.027 TIME LEFT:  2.00D  GRAD.:     0.667 HEAT:-180.8608
 CYCLE:   265 TIME:   0.024 TIME LEFT:  2.00D  GRAD.:     0.383 HEAT:-180.8622
 CYCLE:   266 TIME:   0.023 TIME LEFT:  2.00D  GRAD.:     0.295 HEAT:-180.8622
 CYCLE:   267 TIME:   0.022 TIME LEFT:  2.00D  GRAD.:     0.387 HEAT:-180.8623
 CYCLE:   268 TIME:   0.026 TIME LEFT:  2.00D  GRAD.:     1.993 HEAT:-180.8605
 CYCLE:   269 TIME:   0.024 TIME LEFT:  2.00D  GRAD.:     0.570 HEAT:-180.8631
 CYCLE:   270 TIME:   0.025 TIME LEFT:  2.00D  GRAD.:     0.422 HEAT:-180.8626
 CYCLE:   271 TIME:   0.023 TIME LEFT:  2.00D  GRAD.:     0.341 HEAT:-180.8632
 CYCLE:   272 TIME:   0.025 TIME LEFT:  2.00D  GRAD.:     0.974 HEAT:-180.8633
 CYCLE:   273 TIME:   0.024 TIME LEFT:  2.00D  GRAD.:     0.578 HEAT:-180.8640
 CYCLE:   274 TIME:   0.022 TIME LEFT:  2.00D  GRAD.:     0.490 HEAT:-180.8645
 CYCLE:   275 TIME:   0.024 TIME LEFT:  2.00D  GRAD.:     0.659 HEAT:-180.8657
 CYCLE:   276 TIME:   0.022 TIME LEFT:  2.00D  GRAD.:     0.577 HEAT:-180.8660
 CYCLE:   277 TIME:   0.023 TIME LEFT:  2.00D  GRAD.:     0.784 HEAT:-180.8668
 CYCLE:   278 TIME:   0.024 TIME LEFT:  2.00D  GRAD.:     0.814 HEAT:-180.8674
 CYCLE:   279 TIME:   0.024 TIME LEFT:  2.00D  GRAD.:     0.749 HEAT:-180.8683
 CYCLE:   280 TIME:   0.023 TIME LEFT:  2.00D  GRAD.:     0.614 HEAT:-180.8685
 CYCLE:   281 TIME:   0.025 TIME LEFT:  2.00D  GRAD.:     2.434 HEAT:-180.8681
 CYCLE:   282 TIME:   0.023 TIME LEFT:  2.00D  GRAD.:     0.727 HEAT:-180.8706
 CYCLE:   283 TIME:   0.024 TIME LEFT:  2.00D  GRAD.:     0.626 HEAT:-180.8709
 CYCLE:   284 TIME:   0.024 TIME LEFT:  2.00D  GRAD.:     0.439 HEAT:-180.8718
 CYCLE:   285 TIME:   0.026 TIME LEFT:  2.00D  GRAD.:     1.570 HEAT:-180.8726
 CYCLE:   286 TIME:   0.024 TIME LEFT:  2.00D  GRAD.:     0.624 HEAT:-180.8738
 CYCLE:   287 TIME:   0.023 TIME LEFT:  2.00D  GRAD.:     0.495 HEAT:-180.8744
 CYCLE:   288 TIME:   0.024 TIME LEFT:  2.00D  GRAD.:     0.385 HEAT:-180.8752
 CYCLE:   289 TIME:   0.024 TIME LEFT:  2.00D  GRAD.:     0.349 HEAT:-180.8756
 CYCLE:   290 TIME:   0.023 TIME LEFT:  2.00D  GRAD.:     0.415 HEAT:-180.8757
 CYCLE:   291 TIME:   0.024 TIME LEFT:  2.00D  GRAD.:     0.486 HEAT:-180.8762
 CYCLE:   292 TIME:   0.027 TIME LEFT:  2.00D  GRAD.:     1.762 HEAT:-180.8738
 CYCLE:   293 TIME:   0.024 TIME LEFT:  2.00D  GRAD.:     0.906 HEAT:-180.8780
 CYCLE:   294 TIME:   0.023 TIME LEFT:  2.00D  GRAD.:     0.631 HEAT:-180.8785
 CYCLE:   295 TIME:   0.024 TIME LEFT:  2.00D  GRAD.:     0.509 HEAT:-180.8787
 CYCLE:   296 TIME:   0.023 TIME LEFT:  2.00D  GRAD.:     0.501 HEAT:-180.8790
 CYCLE:   297 TIME:   0.024 TIME LEFT:  2.00D  GRAD.:     0.386 HEAT:-180.8792
 CYCLE:   298 TIME:   0.022 TIME LEFT:  2.00D  GRAD.:     0.291 HEAT:-180.8793
 CYCLE:   299 TIME:   0.022 TIME LEFT:  2.00D  GRAD.:     0.253 HEAT:-180.8794
 CYCLE:   300 TIME:   0.023 TIME LEFT:  2.00D  GRAD.:     0.301 HEAT:-180.8795
 CYCLE:   301 TIME:   0.023 TIME LEFT:  2.00D  GRAD.:     0.228 HEAT:-180.8796
 CYCLE:   302 TIME:   0.022 TIME LEFT:  2.00D  GRAD.:     0.332 HEAT:-180.8796
 CYCLE:   303 TIME:   0.022 TIME LEFT:  2.00D  GRAD.:     0.309 HEAT:-180.8796
 CYCLE:   304 TIME:   0.023 TIME LEFT:  2.00D  GRAD.:     0.241 HEAT:-180.8799
 CYCLE:   305 TIME:   0.024 TIME LEFT:  2.00D  GRAD.:     0.424 HEAT:-180.8804
 CYCLE:   306 TIME:   0.022 TIME LEFT:  2.00D  GRAD.:     0.294 HEAT:-180.8806
 CYCLE:   307 TIME:   0.023 TIME LEFT:  2.00D  GRAD.:     0.608 HEAT:-180.8806
 CYCLE:   308 TIME:   0.023 TIME LEFT:  2.00D  GRAD.:     0.213 HEAT:-180.8809
 CYCLE:   309 TIME:   0.022 TIME LEFT:  2.00D  GRAD.:     0.210 HEAT:-180.8809
 CYCLE:   310 TIME:   0.024 TIME LEFT:  2.00D  GRAD.:     0.389 HEAT:-180.8811
 CYCLE:   311 TIME:   0.024 TIME LEFT:  2.00D  GRAD.:     0.176 HEAT:-180.8812
 CYCLE:   312 TIME:   0.024 TIME LEFT:  2.00D  GRAD.:     0.167 HEAT:-180.8811
 CYCLE:   313 TIME:   0.022 TIME LEFT:  2.00D  GRAD.:     0.137 HEAT:-180.8811
 CYCLE:   314 TIME:   0.022 TIME LEFT:  2.00D  GRAD.:     0.755 HEAT:-180.8807
 CYCLE:   315 TIME:   0.025 TIME LEFT:  2.00D  GRAD.:     0.177 HEAT:-180.8813
 CYCLE:   316 TIME:   0.023 TIME LEFT:  2.00D  GRAD.:     0.149 HEAT:-180.8813
 CYCLE:   317 TIME:   0.023 TIME LEFT:  2.00D  GRAD.:     0.111 HEAT:-180.8813
 CYCLE:   318 TIME:   0.022 TIME LEFT:  2.00D  GRAD.:     0.103 HEAT:-180.8812
 CYCLE:   319 TIME:   0.024 TIME LEFT:  2.00D  GRAD.:     0.357 HEAT:-180.8807
 CYCLE:   320 TIME:   0.024 TIME LEFT:  2.00D  GRAD.:     0.154 HEAT:-180.8811
 CYCLE:   321 TIME:   0.022 TIME LEFT:  2.00D  GRAD.:     0.111 HEAT:-180.8813
 CYCLE:   322 TIME:   0.022 TIME LEFT:  2.00D  GRAD.:     0.099 HEAT:-180.8812

     RMS GRADIENT =  0.09907  IS LESS THAN CUTOFF =  0.10000



 -------------------------------------------------------------------------------
 PM3 CHARGE=0 GNORM=0.100  static




     GEOMETRY OPTIMISED USING EIGENVECTOR FOLLOWING (EF).     
     SCF FIELD WAS ACHIEVED                                   


                              PM3 CALCULATION
                                                       MOPAC2012 (Version: 12.239L)
                                                       Sat Jan 12 10:59:01 2013
                                                       No. of days left = 227




          FINAL HEAT OF FORMATION =       -180.88123 KCAL/MOL =    -756.80708 KJ/MOL


          TOTAL ENERGY            =      -3790.68443 EV
          ELECTRONIC ENERGY       =     -24815.10888 EV  POINT GROUP:     C1  
          CORE-CORE REPULSION     =      21024.42446 EV
          COSMO AREA              =        298.05 SQUARE ANGSTROMS
          COSMO VOLUME            =        328.23 CUBIC ANGSTROMS

          GRADIENT NORM           =          0.09907
          IONIZATION POTENTIAL    =          9.858245 EV
          HOMO LUMO ENERGIES (EV) =         -9.858 -0.754
          NO. OF FILLED LEVELS    =         55
          MOLECULAR WEIGHT        =        308.305

          MOLECULAR DIMENSIONS (Angstroms)

            Atom       Atom       Distance
            H    25    H    33     9.90673
            H    31    H    23     7.71684
            O     8    H    30     5.85027


          SCF CALCULATIONS        =        337
          COMPUTATION TIME        =          7.897 SECONDS




   ATOM   CHEMICAL          X               Y               Z
  NUMBER   SYMBOL      (ANGSTROMS)     (ANGSTROMS)     (ANGSTROMS)
 
     1       C         -1.52143930  *   0.17353700  *   1.09564779  *
     2       C         -0.40188312  *   0.07650481  *   1.91425577  *
     3       C          0.82799582  *  -0.28707641  *   1.37444658  *
     4       C          0.93899494  *  -0.56008086  *   0.01470053  *
     5       C         -0.17853154  *  -0.47274224  *  -0.80811663  *
     6       C         -1.41061090  *  -0.09903933  *  -0.26845527  *
     7       C         -2.62126627  *  -0.03131916  *  -1.14206884  *
     8       O         -2.93040974  *  -0.94848912  *  -1.87577768  *
     9       C         -3.43946700  *   1.21371623  *  -1.05341145  *
    10       C         -4.80532451  *   1.09804310  *  -0.80673404  *
    11       C         -5.65235001  *   2.20422452  *  -0.69892441  *
    12       C         -5.07498454  *   3.47998019  *  -0.91788899  *
    13       C         -3.71079007  *   3.63201535  *  -1.18132286  *
    14       C         -2.89217322  *   2.49810211  *  -1.24248492  *
    15       O         -1.58671305  *   2.74563395  *  -1.52146332  *
    16       O         -5.95285957  *   4.53170189  *  -0.86963537  *
    17       C         -5.45265499  *   5.83972987  *  -1.01734660  *
    18       S         -7.38531799  *   1.95089926  *  -0.34575170  *
    19       O         -7.86290809  *   2.80154348  *   0.70782298  *
    20       O         -8.13348949  *   1.78236499  *  -1.54936903  *
    21       O         -7.34358518  *   0.43375869  *   0.39411155  *
    22       H         -2.49200224  *   0.46135305  *   1.51643631  *
    23       H         -0.49014886  *   0.28618820  *   2.98562269  *
    24       H          1.70887375  *  -0.36141674  *   2.02114933  *
    25       H          1.90590069  *  -0.85183941  *  -0.40907707  *
    26       H         -0.09844862  *  -0.71167354  *  -1.87525592  *
    27       H         -5.21736500  *   0.08302243  *  -0.69449236  *
    28       H         -3.26483516  *   4.62152042  *  -1.35035256  *
    29       H         -1.09471678  *   1.93380629  *  -1.44765439  *
    30       H         -4.72690925  *   6.09774421  *  -0.23783861  *
    31       H         -5.01382603  *   6.00373583  *  -2.00817635  *
    32       H         -6.36064871  *   6.43848025  *  -0.90186860  *
    33       H         -7.78789612  *   0.36978974  *   1.22835779  *

           Empirical Formula: C14 H12 O6 S  =    33 atoms



      MOLECULAR POINT GROUP   :   C1  


                  EIGENVALUES  
 -42.46137 -40.39895 -38.83678 -38.33135 -37.55566 -36.44789 -35.97249 -35.81826
 -31.10422 -30.24186 -29.97545 -29.13085 -27.46751 -23.93794 -23.20208 -22.22088
 -22.15009 -21.39191 -20.45372 -19.84256 -18.86493 -18.51335 -18.18199 -17.59330
 -17.51896 -16.98782 -16.91703 -16.49405 -16.32890 -16.26957 -15.82769 -15.52111
 -15.40317 -15.31877 -15.23130 -14.97821 -14.86605 -14.32177 -13.80737 -13.58630
 -13.46112 -13.37323 -13.33173 -12.97319 -12.95999 -12.19749 -11.84255 -11.83113
 -11.71475 -11.50123 -11.17810 -10.40290 -10.38234 -10.22420  -9.85824  -0.75401
  -0.58060  -0.38912  -0.21955   0.22865   0.71591   1.58652   1.66664   1.83136
   1.89104   2.07602   2.20529   2.59733   2.72689   2.87310   2.88600   2.94750
   3.06055   3.20102   3.27604   3.40107   3.44457   3.61563   3.64525   3.68471
   3.88474   4.01442   4.17349   4.31341   4.36879   4.40122   4.48407   4.62524
   4.66582   4.97034   5.19098   5.26416   5.47264   5.63164   5.74661   6.56482


              NET ATOMIC CHARGES AND DIPOLE CONTRIBUTIONS

  ATOM NO.   TYPE          CHARGE      No. of ELECS.   s-Pop       p-Pop       
    1          C          -0.057210        4.0572     1.17645     2.88076
    2          C          -0.106045        4.1060     1.18091     2.92514
    3          C          -0.073996        4.0740     1.18077     2.89323
    4          C          -0.107298        4.1073     1.18122     2.92608
    5          C          -0.063086        4.0631     1.17753     2.88556
    6          C          -0.184113        4.1841     1.19293     2.99118
    7          C           0.382557        3.6174     1.16419     2.45325
    8          O          -0.284491        6.2845     1.86273     4.42176
    9          C          -0.315392        4.3154     1.19469     3.12070
   10          C           0.112727        3.8873     1.16760     2.71967
   11          C          -0.655857        4.6559     1.27259     3.38327
   12          C           0.252176        3.7478     1.15778     2.59004
   13          C          -0.282196        4.2822     1.17900     3.10319
   14          C           0.236092        3.7639     1.15309     2.61081
   15          O          -0.224337        6.2243     1.79025     4.43409
   16          O          -0.188446        6.1884     1.83280     4.35565
   17          C           0.060937        3.9391     1.13487     2.80419
   18          S           2.420506        3.5795     1.17522     2.40427
   19          O          -0.868873        6.8689     1.88174     4.98713
   20          O          -0.831939        6.8319     1.87848     4.95346
   21          O          -0.656690        6.6567     1.81333     4.84336
   22          H           0.112745        0.8873     0.88725
   23          H           0.110163        0.8898     0.88984
   24          H           0.107172        0.8928     0.89283
   25          H           0.110548        0.8895     0.88945
   26          H           0.116588        0.8834     0.88341
   27          H           0.128327        0.8717     0.87167
   28          H           0.145030        0.8550     0.85497
   29          H           0.216604        0.7834     0.78340
   30          H           0.033694        0.9663     0.96631
   31          H           0.033083        0.9669     0.96692
   32          H           0.062023        0.9380     0.93798
   33          H           0.258998        0.7410     0.74100
 DIPOLE           X         Y         Z       TOTAL
 POINT-CHG.     4.923     1.824     1.920     5.591
 HYBRID         1.047    -0.126     0.584     1.205
 SUM            5.970     1.699     2.504     6.693


          CARTESIAN COORDINATES 

    NO.       ATOM               X         Y         Z

     1         C                 -1.5214    0.1735    1.0956
     2         C                 -0.4019    0.0765    1.9143
     3         C                  0.8280   -0.2871    1.3744
     4         C                  0.9390   -0.5601    0.0147
     5         C                 -0.1785   -0.4727   -0.8081
     6         C                 -1.4106   -0.0990   -0.2685
     7         C                 -2.6213   -0.0313   -1.1421
     8         O                 -2.9304   -0.9485   -1.8758
     9         C                 -3.4395    1.2137   -1.0534
    10         C                 -4.8053    1.0980   -0.8067
    11         C                 -5.6524    2.2042   -0.6989
    12         C                 -5.0750    3.4800   -0.9179
    13         C                 -3.7108    3.6320   -1.1813
    14         C                 -2.8922    2.4981   -1.2425
    15         O                 -1.5867    2.7456   -1.5215
    16         O                 -5.9529    4.5317   -0.8696
    17         C                 -5.4527    5.8397   -1.0173
    18         S                 -7.3853    1.9509   -0.3458
    19         O                 -7.8629    2.8015    0.7078
    20         O                 -8.1335    1.7824   -1.5494
    21         O                 -7.3436    0.4338    0.3941
    22         H                 -2.4920    0.4614    1.5164
    23         H                 -0.4901    0.2862    2.9856
    24         H                  1.7089   -0.3614    2.0211
    25         H                  1.9059   -0.8518   -0.4091
    26         H                 -0.0984   -0.7117   -1.8753
    27         H                 -5.2174    0.0830   -0.6945
    28         H                 -3.2648    4.6215   -1.3504
    29         H                 -1.0947    1.9338   -1.4477
    30         H                 -4.7269    6.0977   -0.2378
    31         H                 -5.0138    6.0037   -2.0082
    32         H                 -6.3606    6.4385   -0.9019
    33         H                 -7.7879    0.3698    1.2284


          ATOMIC ORBITAL ELECTRON POPULATIONS

   1.17645   0.98094   0.97170   0.92812   1.18091   0.94127   0.99725   0.98662
   1.18077   0.97011   0.96843   0.95470   1.18122   0.97944   0.99799   0.94865
   1.17753   0.92812   0.96642   0.99102   1.19293   0.96540   1.05673   0.96905
   1.16419   0.82005   0.84098   0.79222   1.86273   1.67809   1.41165   1.33202
   1.19469   0.98478   0.95347   1.18245   1.16760   0.90061   0.96453   0.85452
   1.27259   1.13631   0.98611   1.26086   1.15778   0.88121   0.85632   0.85251
   1.17900   0.94441   1.00044   1.15834   1.15309   0.84442   0.90784   0.85856
   1.79025   1.16709   1.41562   1.85138   1.83280   1.34913   1.13803   1.86849
   1.13487   0.99749   0.81910   0.98760   1.17522   0.80474   0.79073   0.80880
   1.88174   1.79112   1.66588   1.53013   1.87848   1.67308   1.82935   1.45103
   1.81333   1.82706   1.55190   1.46439   0.88725   0.88984   0.89283   0.88945
   0.88341   0.87167   0.85497   0.78340   0.96631   0.96692   0.93798   0.74100
 ******************** FINITE-FIELD POLARIZABILITIES ********************

    THE F-F METHOD IS PERFORMED USING BOTH AN ENERGY
    AND DIPOLE MOMENT EXPANSION.  THESE RESULTS ARE
    LISTED BELOW AS "H.o.F." AND "Dipole", RESPECTIVELY.

          MOLECULAR WEIGHT =  308.31



          ROTATIONAL CONSTANTS IN CM(-1)

          A =    0.01786646   B =    0.00529282   C =    0.00470627



           PRINCIPAL MOMENTS OF INERTIA IN UNITS OF 10**(-40)*GRAM-CM**2

          A =     1566.7778   B =     5288.8157   C =     5947.9728


 ROTATION MATRIX FOR ORIENTATION OF MOLECULE:

         0.913688    0.406365    0.006406
        -0.397041    0.889135    0.227590
         0.086789   -0.210490    0.973736


          CARTESIAN COORDINATES 

    NO.       ATOM         X         Y         Z

     1         C        2.9761   -0.5889    1.2143
     2         C        4.1086   -0.3926    1.9965
     3         C        5.3298   -0.1024    1.3960
     4         C        5.4216   -0.0139    0.0105
     5         C        4.2945   -0.2171   -0.7780
     6         C        3.0672   -0.4991   -0.1753
     7         C        1.8583   -0.7470   -1.0183
     8         O        1.8763   -1.5337   -1.9435
     9         C        0.6241    0.0089   -0.6539
    10         C       -0.5565   -0.7009   -0.4488
    11         C       -1.7603   -0.0843   -0.0974
    12         C       -1.7583    1.3307   -0.0166
    13         C       -0.5951    2.0757   -0.2298
    14         C        0.5978    1.4131   -0.5422
    15         O        1.6681    2.2224   -0.7491
    16         O       -2.9738    1.8990    0.2641
    17         C       -3.0489    3.2963    0.4212
    18         S       -3.2125   -1.0881    0.1777
    19         O       -3.8951   -0.7476    1.3941
    20         O       -3.9336   -1.2886   -1.0375
    21         O       -2.5078   -2.5758    0.5531
    22         H        2.0115   -0.8160    1.6833
    23         H        4.0377   -0.4675    3.0869
    24         H        6.2203    0.0533    2.0144
    25         H        6.3841    0.2089   -0.4623
    26         H        4.3699   -0.1724   -1.8709
    27         H       -0.5203   -1.7945   -0.5731
    28         H       -0.5952    3.1723   -0.1663
    29         H        2.4463    1.6849   -0.8589
    30         H       -2.4206    3.6566    1.2436
    31         H       -2.7991    3.8290   -0.5035
    32         H       -4.1063    3.4354    0.6641
    33         H       -2.8159   -2.9888    1.3480


 ENERGY OF "REORIENTED" SYSTEM WITHOUT FIELD:     -180.88124 Kcal/mol


 APPLIED ELECTRIC FIELD MAGNITUDE:         0.10284 VOLTS PER ANGSTROM
    Step  1 of 36 done (+X)
    Step  2 of 36 done (-X)
    Step  3 of 36 done (+2X)
    Step  4 of 36 done (-2X)
    Step  5 of 36 done (+Y)
    Step  6 of 36 done (-Y)
    Step  7 of 36 done (+2Y)
    Step  8 of 36 done (-2Y)
    Step  9 of 36 done (+Y+X)
    Step 10 of 36 done (+Y-X)
    Step 11 of 36 done (-Y-X)
    Step 12 of 36 done (-Y+X)
    Step 13 of 36 done (+2Y+2X)
    Step 14 of 36 done (+2Y-2X)
    Step 15 of 36 done (-2Y-2X)
    Step 16 of 36 done (-2Y+2X)
    Step 17 of 36 done (+Z)
    Step 18 of 36 done (-Z)
    Step 19 of 36 done (+2Z)
    Step 20 of 36 done (-2Z)
    Step 21 of 36 done (+Z+X)
    Step 22 of 36 done (+Z-X)
    Step 23 of 36 done (-Z-X)
    Step 24 of 36 done (-Z+X)
    Step 25 of 36 done (+2Z+2X)
    Step 26 of 36 done (+2Z-2X)
    Step 27 of 36 done (-2Z-2X)
    Step 28 of 36 done (-2Z+2X)
    Step 29 of 36 done (+Z+Y)
    Step 30 of 36 done (+Z-Y)
    Step 31 of 36 done (-Z-Y)
    Step 32 of 36 done (-Z+Y)
    Step 33 of 36 done (+2Z+2Y)
    Step 34 of 36 done (+2Z-2Y)
    Step 35 of 36 done (-2Z-2Y)
    Step 36 of 36 done (-2Z+2Y)


 ****************************** DIPOLE ******************************


                     H.o.F.         Dipole

     X             -1.966276      -1.966289
     Y             -1.341313      -1.341252
     X             -1.126502      -1.126460


 MAGNITUDE:         2.633319       2.633280  (A.U.)
                    6.693228       6.693129  (DEBYE)


 ****************************** POLARIZABILITY ********************



 Polarizability Tensor from Heat of Formation:


                     1          2          3
 ------------------------------------------
          1 202.590031
          2   5.716473 180.707068
          3 -11.297625   7.063541 178.796665




    ROOT NO.    1           2           3

           168.18186   186.51572   207.39618
  
         1   0.33989     0.11493     0.93342
         2  -0.57488     0.81088     0.10950
         3   0.74431     0.57381    -0.34168

 Polarizability Tensor from Dipole Moment:


                     1          2          3
 ------------------------------------------
          1 202.560821
          2   5.632459 180.687511
          3 -11.265906   7.038337 178.793126




    ROOT NO.    1           2           3

           168.24046   186.46628   207.33472
  
         1   0.33885     0.11689     0.93355
         2  -0.57460     0.81141     0.10696
         3   0.74499     0.57266    -0.34211


 Average Polarizability from:     H.o.F         Dipole
                              187.364588     187.347153  A.U.
                               27.763685      27.761101  ANG.**3
                            5.552587D-23   5.552070D-23  ESU



 TOTAL CPU TIME:             8.45 SECONDS

 == MOPAC DONE ==
