 *******************************************************************************
 ** Site#: 14498           For non-commercial use only        Version 12.239L **
 *******************************************************************************
 ** Cite this work as: MOPAC2012, James J. P. Stewart, Stewart Computational  **
 ** Chemistry, Version 12.239L web: HTTP://OpenMOPAC.net  Days remaining: 227 **
 *******************************************************************************
 **                                                                           **
 **                                MOPAC2012                                  **
 **                                                                           **
 *******************************************************************************

                            PM3 CALCULATION RESULTS


 *******************************************************************************
 *  CALCULATION DONE:                                Sat Jan 12 10:59:04 2013  *
 *  PM3      - The PM3 Hamiltonian to be used
 *  STATIC   - CALCULATE STATIC FIELD POLARIZABILITIES
 *
 *
 *
 *                 CHARGE ON SYSTEM =     0
 *
 *
 *
 *  T=       - A TIME OF 172800.0 SECONDS REQUESTED
 *  DUMP=N   - RESTART FILE WRITTEN EVERY  7200.000 SECONDS
 *  GNORM=   - EXIT WHEN GRADIENT NORM DROPS BELOW .100    
 *******************************************************************************
 PM3 CHARGE=0 GNORM=0.100  static


   ATOM   CHEMICAL          X               Y               Z
  NUMBER   SYMBOL      (ANGSTROMS)     (ANGSTROMS)     (ANGSTROMS)
 
     1       C         -1.36160000  *  -0.06720000  *  -0.06520000  *
     2       C         -0.72170000  *   1.17270000  *   0.00940000  *
     3       C          0.67070000  *   1.24410000  *  -0.03480000  *
     4       C          1.43330000  *   0.07650000  *  -0.03350000  *
     5       C          0.79690000  *  -1.15710000  *   0.04750000  *
     6       C         -0.58400000  *  -1.22980000  *  -0.03870000  *
     7       O          2.78700000  *   0.24250000  *  -0.12350000  *
     8       C          3.53090000  *  -0.97020000  *  -0.19500000  *
     9       C         -2.82290000  *  -0.10270000  *  -0.05630000  *
    10       C         -3.50860000  *  -1.24620000  *   0.04270000  *
    11       C         -4.95940000  *  -1.29650000  *   0.30460000  *
    12       O         -5.48870000  *  -2.34900000  *   0.67200000  *
    13       O         -5.57970000  *  -0.23000000  *  -0.26710000  *
    14       C         -6.98050000  *  -0.39020000  *  -0.57630000  *
    15       C         -7.32180000  *  -0.96050000  *  -1.98440000  *
    16       O         -6.85040000  *  -2.26970000  *  -2.32880000  *
    17       C         -5.44400000  *  -2.37310000  *  -2.43690000  *
    18       C         -4.72010000  *  -1.48270000  *  -3.41400000  *
    19       H         -1.29730000  *   2.09020000  *   0.11150000  *
    20       H          1.15880000  *   2.21400000  *  -0.06400000  *
    21       H          1.33580000  *  -2.09060000  *   0.16380000  *
    22       H         -1.01580000  *  -2.22470000  *  -0.05930000  *
    23       H          3.44480000  *  -1.51930000  *   0.74910000  *
    24       H          3.21000000  *  -1.59270000  *  -1.04030000  *
    25       H          4.58150000  *  -0.71880000  *  -0.34730000  *
    26       H         -3.34330000  *   0.84980000  *  -0.03690000  *
    27       H         -3.05510000  *  -2.22580000  *  -0.07540000  *
    28       H         -7.47230000  *  -0.96240000  *   0.21460000  *
    29       H         -7.39080000  *   0.62630000  *  -0.54510000  *
    30       H         -8.41480000  *  -1.01180000  *  -2.05710000  *
    31       H         -7.01010000  *  -0.27130000  *  -2.77220000  *
    32       H         -5.07410000  *  -1.95520000  *  -1.55870000  *
    33       H         -5.08740000  *  -3.40460000  *  -2.34460000  *
    34       H         -5.02940000  *  -0.43870000  *  -3.29540000  *
    35       H         -3.64900000  *  -1.49490000  *  -3.17470000  *
    36       H         -4.88690000  *  -1.79290000  *  -4.43990000  *
 


          CARTESIAN COORDINATES 

    NO.       ATOM         X         Y         Z

     1         C       -1.3616   -0.0672   -0.0652
     2         C       -0.7217    1.1727    0.0094
     3         C        0.6707    1.2441   -0.0348
     4         C        1.4333    0.0765   -0.0335
     5         C        0.7969   -1.1571    0.0475
     6         C       -0.5840   -1.2298   -0.0387
     7         O        2.7870    0.2425   -0.1235
     8         C        3.5309   -0.9702   -0.1950
     9         C       -2.8229   -0.1027   -0.0563
    10         C       -3.5086   -1.2462    0.0427
    11         C       -4.9594   -1.2965    0.3046
    12         O       -5.4887   -2.3490    0.6720
    13         O       -5.5797   -0.2300   -0.2671
    14         C       -6.9805   -0.3902   -0.5763
    15         C       -7.3218   -0.9605   -1.9844
    16         O       -6.8504   -2.2697   -2.3288
    17         C       -5.4440   -2.3731   -2.4369
    18         C       -4.7201   -1.4827   -3.4140
    19         H       -1.2973    2.0902    0.1115
    20         H        1.1588    2.2140   -0.0640
    21         H        1.3358   -2.0906    0.1638
    22         H       -1.0158   -2.2247   -0.0593
    23         H        3.4448   -1.5193    0.7491
    24         H        3.2100   -1.5927   -1.0403
    25         H        4.5815   -0.7188   -0.3473
    26         H       -3.3433    0.8498   -0.0369
    27         H       -3.0551   -2.2258   -0.0754
    28         H       -7.4723   -0.9624    0.2146
    29         H       -7.3908    0.6263   -0.5451
    30         H       -8.4148   -1.0118   -2.0571
    31         H       -7.0101   -0.2713   -2.7722
    32         H       -5.0741   -1.9552   -1.5587
    33         H       -5.0874   -3.4046   -2.3446
    34         H       -5.0294   -0.4387   -3.2954
    35         H       -3.6490   -1.4949   -3.1747
    36         H       -4.8869   -1.7929   -4.4399

  H: (PM3): J. J. P. STEWART, J. COMP. CHEM. 10, 209 (1989).
  C: (PM3): J. J. P. STEWART, J. COMP. CHEM. 10, 209 (1989).
  O: (PM3): J. J. P. STEWART, J. COMP. CHEM. 10, 209 (1989).

           Empirical Formula: C14 H18 O4  =    36 atoms



      MOLECULAR POINT GROUP   :   C1  


      RHF CALCULATION, NO. OF DOUBLY OCCUPIED LEVELS =   49

      Geometry optimization using EF

          DIAGONAL MATRIX USED AS START HESSIAN

 CYCLE:     1 TIME:   0.044 TIME LEFT:  2.00D  GRAD.:   127.679 HEAT:-93.12779
 CYCLE:     2 TIME:   0.043 TIME LEFT:  2.00D  GRAD.:   248.250 HEAT:-94.49388
 CYCLE:     3 TIME:   0.043 TIME LEFT:  2.00D  GRAD.:   152.047 HEAT:-100.9286
 CYCLE:     4 TIME:   0.023 TIME LEFT:  2.00D  GRAD.:    94.863 HEAT:-104.7027
 CYCLE:     5 TIME:   0.024 TIME LEFT:  2.00D  GRAD.:   106.848 HEAT:-106.8231
 CYCLE:     6 TIME:   0.043 TIME LEFT:  2.00D  GRAD.:    84.462 HEAT:-108.6115
 CYCLE:     7 TIME:   0.023 TIME LEFT:  2.00D  GRAD.:    62.290 HEAT:-110.3172
 CYCLE:     8 TIME:   0.024 TIME LEFT:  2.00D  GRAD.:    78.202 HEAT:-111.7264
 CYCLE:     9 TIME:   0.024 TIME LEFT:  2.00D  GRAD.:   102.209 HEAT:-113.0655
 CYCLE:    10 TIME:   0.024 TIME LEFT:  2.00D  GRAD.:    89.696 HEAT:-115.1196
 CYCLE:    11 TIME:   0.062 TIME LEFT:  2.00D  GRAD.:    51.958 HEAT:-116.5469
 CYCLE:    12 TIME:   0.023 TIME LEFT:  2.00D  GRAD.:    58.119 HEAT:-117.1021
 CYCLE:    13 TIME:   0.023 TIME LEFT:  2.00D  GRAD.:    62.637 HEAT:-117.7713
 CYCLE:    14 TIME:   0.024 TIME LEFT:  2.00D  GRAD.:    36.510 HEAT:-118.7588
 CYCLE:    15 TIME:   0.023 TIME LEFT:  2.00D  GRAD.:    34.871 HEAT:-119.7001
 CYCLE:    16 TIME:   0.023 TIME LEFT:  2.00D  GRAD.:    56.018 HEAT:-120.2395
 CYCLE:    17 TIME:   0.024 TIME LEFT:  2.00D  GRAD.:    67.612 HEAT:-120.8849
 CYCLE:    18 TIME:   0.023 TIME LEFT:  2.00D  GRAD.:    71.135 HEAT:-121.2595
 CYCLE:    19 TIME:   0.023 TIME LEFT:  2.00D  GRAD.:    62.194 HEAT:-122.0340
 CYCLE:    20 TIME:   0.041 TIME LEFT:  2.00D  GRAD.:    43.185 HEAT:-122.6207
 CYCLE:    21 TIME:   0.023 TIME LEFT:  2.00D  GRAD.:    44.181 HEAT:-122.7348
 CYCLE:    22 TIME:   0.023 TIME LEFT:  2.00D  GRAD.:    47.774 HEAT:-122.8561
 CYCLE:    23 TIME:   0.024 TIME LEFT:  2.00D  GRAD.:    37.735 HEAT:-123.1417
 CYCLE:    24 TIME:   0.023 TIME LEFT:  2.00D  GRAD.:    26.201 HEAT:-123.4508
 CYCLE:    25 TIME:   0.022 TIME LEFT:  2.00D  GRAD.:    20.195 HEAT:-123.6937
 CYCLE:    26 TIME:   0.023 TIME LEFT:  2.00D  GRAD.:    22.349 HEAT:-123.8887
 CYCLE:    27 TIME:   0.023 TIME LEFT:  2.00D  GRAD.:    29.254 HEAT:-124.0701
 CYCLE:    28 TIME:   0.023 TIME LEFT:  2.00D  GRAD.:    23.841 HEAT:-124.3993
 CYCLE:    29 TIME:   0.023 TIME LEFT:  2.00D  GRAD.:    24.936 HEAT:-124.5802
 CYCLE:    30 TIME:   0.023 TIME LEFT:  2.00D  GRAD.:    21.107 HEAT:-124.7437
 CYCLE:    31 TIME:   0.023 TIME LEFT:  2.00D  GRAD.:    18.363 HEAT:-124.9009
 CYCLE:    32 TIME:   0.022 TIME LEFT:  2.00D  GRAD.:    18.028 HEAT:-125.0250
 CYCLE:    33 TIME:   0.023 TIME LEFT:  2.00D  GRAD.:    17.635 HEAT:-125.1521
 CYCLE:    34 TIME:   0.023 TIME LEFT:  2.00D  GRAD.:    12.887 HEAT:-125.2671
 CYCLE:    35 TIME:   0.022 TIME LEFT:  2.00D  GRAD.:    14.976 HEAT:-125.3004
 CYCLE:    36 TIME:   0.022 TIME LEFT:  2.00D  GRAD.:    11.929 HEAT:-125.3767
 CYCLE:    37 TIME:   0.021 TIME LEFT:  2.00D  GRAD.:    12.482 HEAT:-125.4167
 CYCLE:    38 TIME:   0.022 TIME LEFT:  2.00D  GRAD.:    10.014 HEAT:-125.4750
 CYCLE:    39 TIME:   0.022 TIME LEFT:  2.00D  GRAD.:    10.018 HEAT:-125.5398
 CYCLE:    40 TIME:   0.022 TIME LEFT:  2.00D  GRAD.:     9.591 HEAT:-125.6060
 CYCLE:    41 TIME:   0.023 TIME LEFT:  2.00D  GRAD.:    10.734 HEAT:-125.6729
 CYCLE:    42 TIME:   0.023 TIME LEFT:  2.00D  GRAD.:     9.228 HEAT:-125.7386
 CYCLE:    43 TIME:   0.023 TIME LEFT:  2.00D  GRAD.:     9.690 HEAT:-125.8154
 CYCLE:    44 TIME:   0.022 TIME LEFT:  2.00D  GRAD.:    14.590 HEAT:-125.9221
 CYCLE:    45 TIME:   0.023 TIME LEFT:  2.00D  GRAD.:     9.473 HEAT:-126.0346
 CYCLE:    46 TIME:   0.023 TIME LEFT:  2.00D  GRAD.:     9.462 HEAT:-126.1227
 CYCLE:    47 TIME:   0.023 TIME LEFT:  2.00D  GRAD.:    10.453 HEAT:-126.2159
 CYCLE:    48 TIME:   0.023 TIME LEFT:  2.00D  GRAD.:    11.446 HEAT:-126.2658
 CYCLE:    49 TIME:   0.023 TIME LEFT:  2.00D  GRAD.:     7.669 HEAT:-126.3062
 CYCLE:    50 TIME:   0.021 TIME LEFT:  2.00D  GRAD.:     6.580 HEAT:-126.3415
 CYCLE:    51 TIME:   0.022 TIME LEFT:  2.00D  GRAD.:     5.011 HEAT:-126.3681
 CYCLE:    52 TIME:   0.022 TIME LEFT:  2.00D  GRAD.:     4.210 HEAT:-126.3863
 CYCLE:    53 TIME:   0.021 TIME LEFT:  2.00D  GRAD.:     3.893 HEAT:-126.4055
 CYCLE:    54 TIME:   0.024 TIME LEFT:  2.00D  GRAD.:     4.131 HEAT:-126.4221
 CYCLE:    55 TIME:   0.021 TIME LEFT:  2.00D  GRAD.:     3.756 HEAT:-126.4404
 CYCLE:    56 TIME:   0.022 TIME LEFT:  2.00D  GRAD.:     3.236 HEAT:-126.4579
 CYCLE:    57 TIME:   0.022 TIME LEFT:  2.00D  GRAD.:     3.659 HEAT:-126.4692
 CYCLE:    58 TIME:   0.022 TIME LEFT:  2.00D  GRAD.:     3.127 HEAT:-126.4774
 CYCLE:    59 TIME:   0.022 TIME LEFT:  2.00D  GRAD.:     2.303 HEAT:-126.4856
 CYCLE:    60 TIME:   0.023 TIME LEFT:  2.00D  GRAD.:     2.950 HEAT:-126.4969
 CYCLE:    61 TIME:   0.023 TIME LEFT:  2.00D  GRAD.:     3.198 HEAT:-126.5089
 CYCLE:    62 TIME:   0.023 TIME LEFT:  2.00D  GRAD.:     2.822 HEAT:-126.5221
 CYCLE:    63 TIME:   0.023 TIME LEFT:  2.00D  GRAD.:     2.478 HEAT:-126.5322
 CYCLE:    64 TIME:   0.021 TIME LEFT:  2.00D  GRAD.:     2.336 HEAT:-126.5398
 CYCLE:    65 TIME:   0.023 TIME LEFT:  2.00D  GRAD.:     2.627 HEAT:-126.5500
 CYCLE:    66 TIME:   0.023 TIME LEFT:  2.00D  GRAD.:     2.465 HEAT:-126.5614
 CYCLE:    67 TIME:   0.023 TIME LEFT:  2.00D  GRAD.:     2.320 HEAT:-126.5745
 CYCLE:    68 TIME:   0.023 TIME LEFT:  2.00D  GRAD.:     2.278 HEAT:-126.5831
 CYCLE:    69 TIME:   0.023 TIME LEFT:  2.00D  GRAD.:     2.155 HEAT:-126.5906
 CYCLE:    70 TIME:   0.022 TIME LEFT:  2.00D  GRAD.:     2.360 HEAT:-126.5992
 CYCLE:    71 TIME:   0.023 TIME LEFT:  2.00D  GRAD.:     2.262 HEAT:-126.6082
 CYCLE:    72 TIME:   0.023 TIME LEFT:  2.00D  GRAD.:     2.816 HEAT:-126.6198
 CYCLE:    73 TIME:   0.023 TIME LEFT:  2.00D  GRAD.:     2.699 HEAT:-126.6321
 CYCLE:    74 TIME:   0.024 TIME LEFT:  2.00D  GRAD.:     2.727 HEAT:-126.6502
 CYCLE:    75 TIME:   0.023 TIME LEFT:  2.00D  GRAD.:     2.716 HEAT:-126.6626
 CYCLE:    76 TIME:   0.024 TIME LEFT:  2.00D  GRAD.:     6.065 HEAT:-126.6651
 CYCLE:    77 TIME:   0.022 TIME LEFT:  2.00D  GRAD.:     3.847 HEAT:-126.6904
 CYCLE:    78 TIME:   0.024 TIME LEFT:  2.00D  GRAD.:     3.216 HEAT:-126.6967
 CYCLE:    79 TIME:   0.023 TIME LEFT:  2.00D  GRAD.:     1.846 HEAT:-126.7109
 CYCLE:    80 TIME:   0.066 TIME LEFT:  2.00D  GRAD.:     3.466 HEAT:-126.7312
 CYCLE:    81 TIME:   0.022 TIME LEFT:  2.00D  GRAD.:     3.116 HEAT:-126.7353
 CYCLE:    82 TIME:   0.023 TIME LEFT:  2.00D  GRAD.:     2.517 HEAT:-126.7428
 CYCLE:    83 TIME:   0.024 TIME LEFT:  2.00D  GRAD.:     4.176 HEAT:-126.7430
 CYCLE:    84 TIME:   0.021 TIME LEFT:  2.00D  GRAD.:     2.127 HEAT:-126.7523
 CYCLE:    85 TIME:   0.024 TIME LEFT:  2.00D  GRAD.:     1.652 HEAT:-126.7519
 CYCLE:    86 TIME:   0.024 TIME LEFT:  2.00D  GRAD.:     1.180 HEAT:-126.7600
 CYCLE:    87 TIME:   0.027 TIME LEFT:  2.00D  GRAD.:     4.093 HEAT:-126.7697
 CYCLE:    88 TIME:   0.021 TIME LEFT:  2.00D  GRAD.:     2.592 HEAT:-126.7799
 CYCLE:    89 TIME:   0.024 TIME LEFT:  2.00D  GRAD.:     3.314 HEAT:-126.8027
 CYCLE:    90 TIME:   0.024 TIME LEFT:  2.00D  GRAD.:     2.867 HEAT:-126.8238
 CYCLE:    91 TIME:   0.024 TIME LEFT:  2.00D  GRAD.:     5.422 HEAT:-126.8318
 CYCLE:    92 TIME:   0.021 TIME LEFT:  2.00D  GRAD.:     3.264 HEAT:-126.8525
 CYCLE:    93 TIME:   0.043 TIME LEFT:  2.00D  GRAD.:     3.798 HEAT:-126.8604
 CYCLE:    94 TIME:   0.023 TIME LEFT:  2.00D  GRAD.:     2.923 HEAT:-126.8825
 CYCLE:    95 TIME:   0.061 TIME LEFT:  2.00D  GRAD.:     3.624 HEAT:-126.8974
 CYCLE:    96 TIME:   0.058 TIME LEFT:  2.00D  GRAD.:     5.085 HEAT:-126.9020
 CYCLE:    97 TIME:   0.022 TIME LEFT:  2.00D  GRAD.:     2.237 HEAT:-126.9178
 CYCLE:    98 TIME:   0.023 TIME LEFT:  2.00D  GRAD.:     2.239 HEAT:-126.9320
 CYCLE:    99 TIME:   0.022 TIME LEFT:  2.00D  GRAD.:     2.933 HEAT:-126.9489
 CYCLE:   100 TIME:   0.023 TIME LEFT:  2.00D  GRAD.:     2.979 HEAT:-126.9789
 CYCLE:   101 TIME:   0.024 TIME LEFT:  2.00D  GRAD.:     2.664 HEAT:-127.0021
 CYCLE:   102 TIME:   0.024 TIME LEFT:  2.00D  GRAD.:     3.372 HEAT:-127.0313
 CYCLE:   103 TIME:   0.023 TIME LEFT:  2.00D  GRAD.:     4.367 HEAT:-127.0682
 CYCLE:   104 TIME:   0.024 TIME LEFT:  2.00D  GRAD.:     6.048 HEAT:-127.1049
 CYCLE:   105 TIME:   0.024 TIME LEFT:  2.00D  GRAD.:     8.828 HEAT:-127.1181
 CYCLE:   106 TIME:   0.023 TIME LEFT:  2.00D  GRAD.:     8.199 HEAT:-127.1481
 CYCLE:   107 TIME:   0.023 TIME LEFT:  2.00D  GRAD.:     3.582 HEAT:-127.1708
 CYCLE:   108 TIME:   0.023 TIME LEFT:  2.00D  GRAD.:     4.523 HEAT:-127.1883
 CYCLE:   109 TIME:   0.042 TIME LEFT:  2.00D  GRAD.:     6.186 HEAT:-127.2073
 CYCLE:   110 TIME:   0.023 TIME LEFT:  2.00D  GRAD.:     3.474 HEAT:-127.2168
 CYCLE:   111 TIME:   0.021 TIME LEFT:  2.00D  GRAD.:     2.893 HEAT:-127.2319
 CYCLE:   112 TIME:   0.023 TIME LEFT:  2.00D  GRAD.:     7.320 HEAT:-127.2370
 CYCLE:   113 TIME:   0.023 TIME LEFT:  2.00D  GRAD.:     4.254 HEAT:-127.2648
 CYCLE:   114 TIME:   0.021 TIME LEFT:  2.00D  GRAD.:     2.891 HEAT:-127.2806
 CYCLE:   115 TIME:   0.024 TIME LEFT:  2.00D  GRAD.:     3.190 HEAT:-127.3046
 CYCLE:   116 TIME:   0.024 TIME LEFT:  2.00D  GRAD.:     4.001 HEAT:-127.3250
 CYCLE:   117 TIME:   0.023 TIME LEFT:  2.00D  GRAD.:     4.377 HEAT:-127.3358
 CYCLE:   118 TIME:   0.023 TIME LEFT:  2.00D  GRAD.:     3.301 HEAT:-127.3494
 CYCLE:   119 TIME:   0.023 TIME LEFT:  2.00D  GRAD.:     2.929 HEAT:-127.3621
 CYCLE:   120 TIME:   0.023 TIME LEFT:  2.00D  GRAD.:     3.322 HEAT:-127.3778
 CYCLE:   121 TIME:   0.023 TIME LEFT:  2.00D  GRAD.:     2.761 HEAT:-127.3909
 CYCLE:   122 TIME:   0.022 TIME LEFT:  2.00D  GRAD.:     3.385 HEAT:-127.4046
 CYCLE:   123 TIME:   0.021 TIME LEFT:  2.00D  GRAD.:     2.847 HEAT:-127.4168
 CYCLE:   124 TIME:   0.024 TIME LEFT:  2.00D  GRAD.:     4.198 HEAT:-127.4327
 CYCLE:   125 TIME:   0.022 TIME LEFT:  2.00D  GRAD.:     4.868 HEAT:-127.4465
 CYCLE:   126 TIME:   0.022 TIME LEFT:  2.00D  GRAD.:     3.561 HEAT:-127.4618
 CYCLE:   127 TIME:   0.023 TIME LEFT:  2.00D  GRAD.:     3.230 HEAT:-127.4841
 CYCLE:   128 TIME:   0.023 TIME LEFT:  2.00D  GRAD.:     3.842 HEAT:-127.4983
 CYCLE:   129 TIME:   0.023 TIME LEFT:  2.00D  GRAD.:     3.296 HEAT:-127.5179
 CYCLE:   130 TIME:   0.024 TIME LEFT:  2.00D  GRAD.:     3.573 HEAT:-127.5424
 CYCLE:   131 TIME:   0.022 TIME LEFT:  2.00D  GRAD.:     3.842 HEAT:-127.5563
 CYCLE:   132 TIME:   0.022 TIME LEFT:  2.00D  GRAD.:     3.803 HEAT:-127.5752
 CYCLE:   133 TIME:   0.023 TIME LEFT:  2.00D  GRAD.:     3.937 HEAT:-127.5933
 CYCLE:   134 TIME:   0.022 TIME LEFT:  2.00D  GRAD.:     3.458 HEAT:-127.6096
 CYCLE:   135 TIME:   0.023 TIME LEFT:  2.00D  GRAD.:     3.637 HEAT:-127.6240
 CYCLE:   136 TIME:   0.023 TIME LEFT:  2.00D  GRAD.:     3.904 HEAT:-127.6382
 CYCLE:   137 TIME:   0.023 TIME LEFT:  2.00D  GRAD.:     3.233 HEAT:-127.6506
 CYCLE:   138 TIME:   0.023 TIME LEFT:  2.00D  GRAD.:     2.329 HEAT:-127.6623
 CYCLE:   139 TIME:   0.023 TIME LEFT:  2.00D  GRAD.:     1.929 HEAT:-127.6689
 CYCLE:   140 TIME:   0.022 TIME LEFT:  2.00D  GRAD.:     1.654 HEAT:-127.6743
 CYCLE:   141 TIME:   0.023 TIME LEFT:  2.00D  GRAD.:     1.649 HEAT:-127.6788
 CYCLE:   142 TIME:   0.024 TIME LEFT:  2.00D  GRAD.:     2.007 HEAT:-127.6825
 CYCLE:   143 TIME:   0.022 TIME LEFT:  2.00D  GRAD.:     1.731 HEAT:-127.6868
 CYCLE:   144 TIME:   0.024 TIME LEFT:  2.00D  GRAD.:     1.647 HEAT:-127.6935
 CYCLE:   145 TIME:   0.023 TIME LEFT:  2.00D  GRAD.:     1.737 HEAT:-127.6979
 CYCLE:   146 TIME:   0.023 TIME LEFT:  2.00D  GRAD.:     2.023 HEAT:-127.7062
 CYCLE:   147 TIME:   0.024 TIME LEFT:  2.00D  GRAD.:     2.211 HEAT:-127.7137
 CYCLE:   148 TIME:   0.024 TIME LEFT:  2.00D  GRAD.:     3.773 HEAT:-127.7198
 CYCLE:   149 TIME:   0.023 TIME LEFT:  2.00D  GRAD.:     3.122 HEAT:-127.7322
 CYCLE:   150 TIME:   0.022 TIME LEFT:  2.00D  GRAD.:     2.159 HEAT:-127.7400
 CYCLE:   151 TIME:   0.023 TIME LEFT:  2.00D  GRAD.:     1.708 HEAT:-127.7486
 CYCLE:   152 TIME:   0.023 TIME LEFT:  2.00D  GRAD.:     1.632 HEAT:-127.7577
 CYCLE:   153 TIME:   0.024 TIME LEFT:  2.00D  GRAD.:     1.749 HEAT:-127.7634
 CYCLE:   154 TIME:   0.022 TIME LEFT:  2.00D  GRAD.:     1.604 HEAT:-127.7682
 CYCLE:   155 TIME:   0.025 TIME LEFT:  2.00D  GRAD.:     2.692 HEAT:-127.7699
 CYCLE:   156 TIME:   0.022 TIME LEFT:  2.00D  GRAD.:     1.544 HEAT:-127.7761
 CYCLE:   157 TIME:   0.024 TIME LEFT:  2.00D  GRAD.:     1.410 HEAT:-127.7707
 CYCLE:   158 TIME:   0.024 TIME LEFT:  2.00D  GRAD.:     1.173 HEAT:-127.7783
 CYCLE:   159 TIME:   0.023 TIME LEFT:  2.00D  GRAD.:     1.580 HEAT:-127.7823
 CYCLE:   160 TIME:   0.023 TIME LEFT:  2.00D  GRAD.:     1.232 HEAT:-127.7854
 CYCLE:   161 TIME:   0.024 TIME LEFT:  2.00D  GRAD.:     1.986 HEAT:-127.7922
 CYCLE:   162 TIME:   0.024 TIME LEFT:  2.00D  GRAD.:     2.077 HEAT:-127.8007
 CYCLE:   163 TIME:   0.024 TIME LEFT:  2.00D  GRAD.:     2.139 HEAT:-127.8087
 CYCLE:   164 TIME:   0.022 TIME LEFT:  2.00D  GRAD.:     1.747 HEAT:-127.8124
 CYCLE:   165 TIME:   0.023 TIME LEFT:  2.00D  GRAD.:     2.629 HEAT:-127.8151
 CYCLE:   166 TIME:   0.023 TIME LEFT:  2.00D  GRAD.:     1.958 HEAT:-127.8201
 CYCLE:   167 TIME:   0.066 TIME LEFT:  2.00D  GRAD.:     3.072 HEAT:-127.8212
 CYCLE:   168 TIME:   0.043 TIME LEFT:  2.00D  GRAD.:     3.822 HEAT:-127.8265
 CYCLE:   169 TIME:   0.022 TIME LEFT:  2.00D  GRAD.:     4.375 HEAT:-127.8275
 CYCLE:   170 TIME:   0.021 TIME LEFT:  2.00D  GRAD.:     1.978 HEAT:-127.8382
 CYCLE:   171 TIME:   0.023 TIME LEFT:  2.00D  GRAD.:     2.719 HEAT:-127.8432
 CYCLE:   172 TIME:   0.023 TIME LEFT:  2.00D  GRAD.:     2.722 HEAT:-127.8503
 CYCLE:   173 TIME:   0.024 TIME LEFT:  2.00D  GRAD.:     3.054 HEAT:-127.8671
 CYCLE:   174 TIME:   0.023 TIME LEFT:  2.00D  GRAD.:     2.753 HEAT:-127.8820
 CYCLE:   175 TIME:   0.024 TIME LEFT:  2.00D  GRAD.:     2.997 HEAT:-127.8991
 CYCLE:   176 TIME:   0.022 TIME LEFT:  2.00D  GRAD.:     2.675 HEAT:-127.9081
 CYCLE:   177 TIME:   0.024 TIME LEFT:  2.00D  GRAD.:     2.799 HEAT:-127.9190
 CYCLE:   178 TIME:   0.022 TIME LEFT:  2.00D  GRAD.:     2.202 HEAT:-127.9272
 CYCLE:   179 TIME:   0.024 TIME LEFT:  2.00D  GRAD.:     2.183 HEAT:-127.9353
 CYCLE:   180 TIME:   0.023 TIME LEFT:  2.00D  GRAD.:     2.027 HEAT:-127.9414
 CYCLE:   181 TIME:   0.024 TIME LEFT:  2.00D  GRAD.:     4.354 HEAT:-127.9448
 CYCLE:   182 TIME:   0.022 TIME LEFT:  2.00D  GRAD.:     1.992 HEAT:-127.9537
 CYCLE:   183 TIME:   0.023 TIME LEFT:  2.00D  GRAD.:     1.106 HEAT:-127.9551
 CYCLE:   184 TIME:   0.024 TIME LEFT:  2.00D  GRAD.:     1.049 HEAT:-127.9586
 CYCLE:   185 TIME:   0.025 TIME LEFT:  2.00D  GRAD.:     5.000 HEAT:-127.9596
 CYCLE:   186 TIME:   0.022 TIME LEFT:  2.00D  GRAD.:     1.509 HEAT:-127.9705
 CYCLE:   187 TIME:   0.023 TIME LEFT:  2.00D  GRAD.:     1.283 HEAT:-127.9715
 CYCLE:   188 TIME:   0.024 TIME LEFT:  2.00D  GRAD.:     1.264 HEAT:-127.9756
 CYCLE:   189 TIME:   0.024 TIME LEFT:  2.00D  GRAD.:     1.838 HEAT:-127.9837
 CYCLE:   190 TIME:   0.023 TIME LEFT:  2.00D  GRAD.:     1.546 HEAT:-127.9884
 CYCLE:   191 TIME:   0.024 TIME LEFT:  2.00D  GRAD.:     2.099 HEAT:-127.9955
 CYCLE:   192 TIME:   0.023 TIME LEFT:  2.00D  GRAD.:     1.809 HEAT:-127.9988
 CYCLE:   193 TIME:   0.024 TIME LEFT:  2.00D  GRAD.:     2.255 HEAT:-128.0048
 CYCLE:   194 TIME:   0.022 TIME LEFT:  2.00D  GRAD.:     1.661 HEAT:-128.0099
 CYCLE:   195 TIME:   0.024 TIME LEFT:  2.00D  GRAD.:     3.341 HEAT:-128.0166
 CYCLE:   196 TIME:   0.023 TIME LEFT:  2.00D  GRAD.:     1.902 HEAT:-128.0214
 CYCLE:   197 TIME:   0.022 TIME LEFT:  2.00D  GRAD.:     1.659 HEAT:-128.0238
 CYCLE:   198 TIME:   0.023 TIME LEFT:  2.00D  GRAD.:     1.210 HEAT:-128.0282
 CYCLE:   199 TIME:   0.024 TIME LEFT:  2.00D  GRAD.:     3.226 HEAT:-128.0318
 CYCLE:   200 TIME:   0.023 TIME LEFT:  2.00D  GRAD.:     1.326 HEAT:-128.0392
 CYCLE:   201 TIME:   0.024 TIME LEFT:  2.00D  GRAD.:     1.336 HEAT:-128.0387
 CYCLE:   202 TIME:   0.023 TIME LEFT:  2.00D  GRAD.:     0.708 HEAT:-128.0418
 CYCLE:   203 TIME:   0.026 TIME LEFT:  2.00D  GRAD.:     3.449 HEAT:-128.0423
 CYCLE:   204 TIME:   0.024 TIME LEFT:  2.00D  GRAD.:     0.644 HEAT:-128.0476
 CYCLE:   205 TIME:   0.023 TIME LEFT:  2.00D  GRAD.:     0.551 HEAT:-128.0486
 CYCLE:   206 TIME:   0.025 TIME LEFT:  2.00D  GRAD.:     3.658 HEAT:-128.0451
 CYCLE:   207 TIME:   0.025 TIME LEFT:  2.00D  GRAD.:     0.825 HEAT:-128.0519
 CYCLE:   208 TIME:   0.023 TIME LEFT:  2.00D  GRAD.:     0.730 HEAT:-128.0526
 CYCLE:   209 TIME:   0.024 TIME LEFT:  2.00D  GRAD.:     0.870 HEAT:-128.0541
 CYCLE:   210 TIME:   0.024 TIME LEFT:  2.00D  GRAD.:     0.780 HEAT:-128.0549
 CYCLE:   211 TIME:   0.023 TIME LEFT:  2.00D  GRAD.:     0.768 HEAT:-128.0560
 CYCLE:   212 TIME:   0.023 TIME LEFT:  2.00D  GRAD.:     1.177 HEAT:-128.0573
 CYCLE:   213 TIME:   0.023 TIME LEFT:  2.00D  GRAD.:     1.201 HEAT:-128.0585
 CYCLE:   214 TIME:   0.024 TIME LEFT:  2.00D  GRAD.:     1.218 HEAT:-128.0606
 CYCLE:   215 TIME:   0.022 TIME LEFT:  2.00D  GRAD.:     1.060 HEAT:-128.0621
 CYCLE:   216 TIME:   0.024 TIME LEFT:  2.00D  GRAD.:     1.052 HEAT:-128.0638
 CYCLE:   217 TIME:   0.024 TIME LEFT:  2.00D  GRAD.:     1.027 HEAT:-128.0653
 CYCLE:   218 TIME:   0.024 TIME LEFT:  2.00D  GRAD.:     0.974 HEAT:-128.0671
 CYCLE:   219 TIME:   0.024 TIME LEFT:  2.00D  GRAD.:     1.010 HEAT:-128.0688
 CYCLE:   220 TIME:   0.024 TIME LEFT:  2.00D  GRAD.:     0.879 HEAT:-128.0707
 CYCLE:   221 TIME:   0.022 TIME LEFT:  2.00D  GRAD.:     0.806 HEAT:-128.0716
 CYCLE:   222 TIME:   0.023 TIME LEFT:  2.00D  GRAD.:     0.659 HEAT:-128.0722
 CYCLE:   223 TIME:   0.024 TIME LEFT:  2.00D  GRAD.:     0.609 HEAT:-128.0726
 CYCLE:   224 TIME:   0.022 TIME LEFT:  2.00D  GRAD.:     0.505 HEAT:-128.0732
 CYCLE:   225 TIME:   0.023 TIME LEFT:  2.00D  GRAD.:     0.448 HEAT:-128.0734
 CYCLE:   226 TIME:   0.023 TIME LEFT:  2.00D  GRAD.:     0.391 HEAT:-128.0736
 CYCLE:   227 TIME:   0.024 TIME LEFT:  2.00D  GRAD.:     0.450 HEAT:-128.0737
 CYCLE:   228 TIME:   0.022 TIME LEFT:  2.00D  GRAD.:     0.349 HEAT:-128.0740
 CYCLE:   229 TIME:   0.024 TIME LEFT:  2.00D  GRAD.:     0.511 HEAT:-128.0742
 CYCLE:   230 TIME:   0.022 TIME LEFT:  2.00D  GRAD.:     0.313 HEAT:-128.0743
 CYCLE:   231 TIME:   0.023 TIME LEFT:  2.00D  GRAD.:     0.280 HEAT:-128.0743
 CYCLE:   232 TIME:   0.022 TIME LEFT:  2.00D  GRAD.:     0.285 HEAT:-128.0745
 CYCLE:   233 TIME:   0.024 TIME LEFT:  2.00D  GRAD.:     0.463 HEAT:-128.0747
 CYCLE:   234 TIME:   0.023 TIME LEFT:  2.00D  GRAD.:     0.483 HEAT:-128.0750
 CYCLE:   235 TIME:   0.023 TIME LEFT:  2.00D  GRAD.:     1.086 HEAT:-128.0759
 CYCLE:   236 TIME:   0.024 TIME LEFT:  2.00D  GRAD.:     0.878 HEAT:-128.0775
 CYCLE:   237 TIME:   0.024 TIME LEFT:  2.00D  GRAD.:     0.879 HEAT:-128.0795
 CYCLE:   238 TIME:   0.024 TIME LEFT:  2.00D  GRAD.:     1.105 HEAT:-128.0820
 CYCLE:   239 TIME:   0.024 TIME LEFT:  2.00D  GRAD.:     1.354 HEAT:-128.0844
 CYCLE:   240 TIME:   0.023 TIME LEFT:  2.00D  GRAD.:     1.327 HEAT:-128.0865
 CYCLE:   241 TIME:   0.022 TIME LEFT:  2.00D  GRAD.:     1.124 HEAT:-128.0883
 CYCLE:   242 TIME:   0.023 TIME LEFT:  2.00D  GRAD.:     1.186 HEAT:-128.0903
 CYCLE:   243 TIME:   0.023 TIME LEFT:  2.00D  GRAD.:     0.952 HEAT:-128.0922
 CYCLE:   244 TIME:   0.024 TIME LEFT:  2.00D  GRAD.:     1.023 HEAT:-128.0942
 CYCLE:   245 TIME:   0.024 TIME LEFT:  2.00D  GRAD.:     1.044 HEAT:-128.0959
 CYCLE:   246 TIME:   0.023 TIME LEFT:  2.00D  GRAD.:     0.884 HEAT:-128.0969
 CYCLE:   247 TIME:   0.024 TIME LEFT:  2.00D  GRAD.:     1.334 HEAT:-128.0982
 CYCLE:   248 TIME:   0.024 TIME LEFT:  2.00D  GRAD.:     0.855 HEAT:-128.0990
 CYCLE:   249 TIME:   0.024 TIME LEFT:  2.00D  GRAD.:     0.567 HEAT:-128.0992
 CYCLE:   250 TIME:   0.022 TIME LEFT:  2.00D  GRAD.:     0.547 HEAT:-128.0997
 CYCLE:   251 TIME:   0.023 TIME LEFT:  2.00D  GRAD.:     0.616 HEAT:-128.1009
 CYCLE:   252 TIME:   0.024 TIME LEFT:  2.00D  GRAD.:     0.720 HEAT:-128.1017
 CYCLE:   253 TIME:   0.024 TIME LEFT:  2.00D  GRAD.:     0.796 HEAT:-128.1031
 CYCLE:   254 TIME:   0.024 TIME LEFT:  2.00D  GRAD.:     1.004 HEAT:-128.1047
 CYCLE:   255 TIME:   0.024 TIME LEFT:  2.00D  GRAD.:     1.198 HEAT:-128.1071
 CYCLE:   256 TIME:   0.024 TIME LEFT:  2.00D  GRAD.:     1.507 HEAT:-128.1103
 CYCLE:   257 TIME:   0.024 TIME LEFT:  2.00D  GRAD.:     2.029 HEAT:-128.1161
 CYCLE:   258 TIME:   0.022 TIME LEFT:  2.00D  GRAD.:     1.569 HEAT:-128.1197
 CYCLE:   259 TIME:   0.148 TIME LEFT:  2.00D  GRAD.:     2.000 HEAT:-128.1196
 CYCLE:   260 TIME:   0.023 TIME LEFT:  2.00D  GRAD.:     1.698 HEAT:-128.1234
 CYCLE:   261 TIME:   0.022 TIME LEFT:  2.00D  GRAD.:     1.183 HEAT:-128.1261
 CYCLE:   262 TIME:   0.023 TIME LEFT:  2.00D  GRAD.:     0.784 HEAT:-128.1272
 CYCLE:   263 TIME:   0.023 TIME LEFT:  2.00D  GRAD.:     0.791 HEAT:-128.1278
 CYCLE:   264 TIME:   0.023 TIME LEFT:  2.00D  GRAD.:     0.556 HEAT:-128.1282
 CYCLE:   265 TIME:   0.024 TIME LEFT:  2.00D  GRAD.:     0.573 HEAT:-128.1286
 CYCLE:   266 TIME:   0.023 TIME LEFT:  2.00D  GRAD.:     0.360 HEAT:-128.1289
 CYCLE:   267 TIME:   0.024 TIME LEFT:  2.00D  GRAD.:     0.382 HEAT:-128.1292
 CYCLE:   268 TIME:   0.023 TIME LEFT:  2.00D  GRAD.:     0.238 HEAT:-128.1294
 CYCLE:   269 TIME:   0.025 TIME LEFT:  2.00D  GRAD.:     3.527 HEAT:-128.1307
 CYCLE:   270 TIME:   0.023 TIME LEFT:  2.00D  GRAD.:     1.081 HEAT:-128.1333
 CYCLE:   271 TIME:   0.044 TIME LEFT:  2.00D  GRAD.:     1.441 HEAT:-128.1283
 CYCLE:   272 TIME:   0.023 TIME LEFT:  2.00D  GRAD.:     0.381 HEAT:-128.1323
 CYCLE:   273 TIME:   0.025 TIME LEFT:  2.00D  GRAD.:     2.384 HEAT:-128.1344
 CYCLE:   274 TIME:   0.023 TIME LEFT:  2.00D  GRAD.:     1.071 HEAT:-128.1350
 CYCLE:   275 TIME:   0.024 TIME LEFT:  2.00D  GRAD.:     0.478 HEAT:-128.1342
 CYCLE:   276 TIME:   0.023 TIME LEFT:  2.00D  GRAD.:     0.369 HEAT:-128.1355
 CYCLE:   277 TIME:   0.023 TIME LEFT:  2.00D  GRAD.:     1.536 HEAT:-128.1373
 CYCLE:   278 TIME:   0.023 TIME LEFT:  2.00D  GRAD.:     0.979 HEAT:-128.1379
 CYCLE:   279 TIME:   0.023 TIME LEFT:  2.00D  GRAD.:     0.631 HEAT:-128.1384
 CYCLE:   280 TIME:   0.024 TIME LEFT:  2.00D  GRAD.:     0.350 HEAT:-128.1393
 CYCLE:   281 TIME:   0.023 TIME LEFT:  2.00D  GRAD.:     0.397 HEAT:-128.1395
 CYCLE:   282 TIME:   0.023 TIME LEFT:  2.00D  GRAD.:     0.374 HEAT:-128.1399
 CYCLE:   283 TIME:   0.024 TIME LEFT:  2.00D  GRAD.:     0.348 HEAT:-128.1405
 CYCLE:   284 TIME:   0.023 TIME LEFT:  2.00D  GRAD.:     0.202 HEAT:-128.1406
 CYCLE:   285 TIME:   0.024 TIME LEFT:  2.00D  GRAD.:     0.222 HEAT:-128.1412
 CYCLE:   286 TIME:   0.024 TIME LEFT:  2.00D  GRAD.:     0.208 HEAT:-128.1417
 CYCLE:   287 TIME:   0.024 TIME LEFT:  2.00D  GRAD.:     0.214 HEAT:-128.1417
 CYCLE:   288 TIME:   0.023 TIME LEFT:  2.00D  GRAD.:     0.144 HEAT:-128.1417
 CYCLE:   289 TIME:   0.021 TIME LEFT:  2.00D  GRAD.:     0.157 HEAT:-128.1417
 CYCLE:   290 TIME:   0.021 TIME LEFT:  2.00D  GRAD.:     4.696 HEAT:-128.1371
 CYCLE:   291 TIME:   0.023 TIME LEFT:  2.00D  GRAD.:     1.718 HEAT:-128.1375
 CYCLE:   292 TIME:   0.025 TIME LEFT:  2.00D  GRAD.:     3.908 HEAT:-128.1440
 CYCLE:   293 TIME:   0.023 TIME LEFT:  2.00D  GRAD.:     2.714 HEAT:-128.1413
 CYCLE:   294 TIME:   0.080 TIME LEFT:  2.00D  GRAD.:     5.297 HEAT:-128.1392
 CYCLE:   295 TIME:   0.022 TIME LEFT:  2.00D  GRAD.:     1.067 HEAT:-128.1479
 CYCLE:   296 TIME:   0.024 TIME LEFT:  2.00D  GRAD.:     2.885 HEAT:-128.1440
 CYCLE:   297 TIME:   0.023 TIME LEFT:  2.00D  GRAD.:     1.018 HEAT:-128.1483
 CYCLE:   298 TIME:   0.024 TIME LEFT:  2.00D  GRAD.:     1.206 HEAT:-128.1491
 CYCLE:   299 TIME:   0.022 TIME LEFT:  2.00D  GRAD.:     0.503 HEAT:-128.1499
 CYCLE:   300 TIME:   0.023 TIME LEFT:  2.00D  GRAD.:     0.473 HEAT:-128.1501
 CYCLE:   301 TIME:   0.023 TIME LEFT:  2.00D  GRAD.:     0.302 HEAT:-128.1502
 CYCLE:   302 TIME:   0.023 TIME LEFT:  2.00D  GRAD.:     0.288 HEAT:-128.1502
 CYCLE:   303 TIME:   0.021 TIME LEFT:  2.00D  GRAD.:     0.288 HEAT:-128.1503
 CYCLE:   304 TIME:   0.023 TIME LEFT:  2.00D  GRAD.:     0.404 HEAT:-128.1504
 CYCLE:   305 TIME:   0.023 TIME LEFT:  2.00D  GRAD.:     0.283 HEAT:-128.1506
 CYCLE:   306 TIME:   0.023 TIME LEFT:  2.00D  GRAD.:     0.321 HEAT:-128.1508
 CYCLE:   307 TIME:   0.022 TIME LEFT:  2.00D  GRAD.:     0.282 HEAT:-128.1509
 CYCLE:   308 TIME:   0.024 TIME LEFT:  2.00D  GRAD.:     0.645 HEAT:-128.1510
 CYCLE:   309 TIME:   0.023 TIME LEFT:  2.00D  GRAD.:     0.599 HEAT:-128.1513
 CYCLE:   310 TIME:   0.024 TIME LEFT:  2.00D  GRAD.:     0.839 HEAT:-128.1519
 CYCLE:   311 TIME:   0.023 TIME LEFT:  2.00D  GRAD.:     0.634 HEAT:-128.1524
 CYCLE:   312 TIME:   0.024 TIME LEFT:  2.00D  GRAD.:     0.943 HEAT:-128.1526
 CYCLE:   313 TIME:   0.024 TIME LEFT:  2.00D  GRAD.:     0.417 HEAT:-128.1535
 CYCLE:   314 TIME:   0.024 TIME LEFT:  2.00D  GRAD.:     0.267 HEAT:-128.1539
 CYCLE:   315 TIME:   0.023 TIME LEFT:  2.00D  GRAD.:     0.251 HEAT:-128.1542
 CYCLE:   316 TIME:   0.023 TIME LEFT:  2.00D  GRAD.:     0.193 HEAT:-128.1543
 CYCLE:   317 TIME:   0.023 TIME LEFT:  2.00D  GRAD.:     0.213 HEAT:-128.1544
 CYCLE:   318 TIME:   0.024 TIME LEFT:  2.00D  GRAD.:     0.255 HEAT:-128.1549
 CYCLE:   319 TIME:   0.023 TIME LEFT:  2.00D  GRAD.:     0.230 HEAT:-128.1550
 CYCLE:   320 TIME:   0.022 TIME LEFT:  2.00D  GRAD.:     0.158 HEAT:-128.1551
 CYCLE:   321 TIME:   0.024 TIME LEFT:  2.00D  GRAD.:     0.877 HEAT:-128.1559
 CYCLE:   322 TIME:   0.024 TIME LEFT:  2.00D  GRAD.:     0.411 HEAT:-128.1566
 CYCLE:   323 TIME:   0.024 TIME LEFT:  2.00D  GRAD.:     0.270 HEAT:-128.1566
 CYCLE:   324 TIME:   0.022 TIME LEFT:  2.00D  GRAD.:     0.141 HEAT:-128.1568
 CYCLE:   325 TIME:   0.025 TIME LEFT:  2.00D  GRAD.:     1.371 HEAT:-128.1614
 CYCLE:   326 TIME:   0.023 TIME LEFT:  2.00D  GRAD.:     0.504 HEAT:-128.1620
 CYCLE:   327 TIME:   0.024 TIME LEFT:  2.00D  GRAD.:     0.477 HEAT:-128.1625
 CYCLE:   328 TIME:   0.023 TIME LEFT:  2.00D  GRAD.:     0.237 HEAT:-128.1625
 CYCLE:   329 TIME:   0.022 TIME LEFT:  2.00D  GRAD.:     0.201 HEAT:-128.1626
 CYCLE:   330 TIME:   0.026 TIME LEFT:  2.00D  GRAD.:     2.755 HEAT:-128.1555
 CYCLE:   331 TIME:   0.024 TIME LEFT:  2.00D  GRAD.:     0.382 HEAT:-128.1649
 CYCLE:   332 TIME:   0.023 TIME LEFT:  2.00D  GRAD.:     0.282 HEAT:-128.1649
 CYCLE:   333 TIME:   0.022 TIME LEFT:  2.00D  GRAD.:     0.345 HEAT:-128.1650
 CYCLE:   334 TIME:   0.023 TIME LEFT:  2.00D  GRAD.:     0.219 HEAT:-128.1651
 CYCLE:   335 TIME:   0.023 TIME LEFT:  2.00D  GRAD.:     0.308 HEAT:-128.1651
 CYCLE:   336 TIME:   0.023 TIME LEFT:  2.00D  GRAD.:     0.391 HEAT:-128.1652
 CYCLE:   337 TIME:   0.022 TIME LEFT:  2.00D  GRAD.:     0.505 HEAT:-128.1654
 CYCLE:   338 TIME:   0.023 TIME LEFT:  2.00D  GRAD.:     0.558 HEAT:-128.1660
 CYCLE:   339 TIME:   0.022 TIME LEFT:  2.00D  GRAD.:     0.488 HEAT:-128.1663
 CYCLE:   340 TIME:   0.024 TIME LEFT:  2.00D  GRAD.:     1.489 HEAT:-128.1663
 CYCLE:   341 TIME:   0.024 TIME LEFT:  2.00D  GRAD.:     0.563 HEAT:-128.1678
 CYCLE:   342 TIME:   0.023 TIME LEFT:  2.00D  GRAD.:     0.540 HEAT:-128.1681
 CYCLE:   343 TIME:   0.025 TIME LEFT:  2.00D  GRAD.:     2.841 HEAT:-128.1671
 CYCLE:   344 TIME:   0.024 TIME LEFT:  2.00D  GRAD.:     0.837 HEAT:-128.1719
 CYCLE:   345 TIME:   0.024 TIME LEFT:  2.00D  GRAD.:     0.991 HEAT:-128.1721
 CYCLE:   346 TIME:   0.024 TIME LEFT:  2.00D  GRAD.:     0.796 HEAT:-128.1726
 CYCLE:   347 TIME:   0.024 TIME LEFT:  2.00D  GRAD.:     0.553 HEAT:-128.1730
 CYCLE:   348 TIME:   0.023 TIME LEFT:  2.00D  GRAD.:     0.512 HEAT:-128.1732
 CYCLE:   349 TIME:   0.024 TIME LEFT:  2.00D  GRAD.:     0.456 HEAT:-128.1731
 CYCLE:   350 TIME:   0.023 TIME LEFT:  2.00D  GRAD.:     0.358 HEAT:-128.1732
 CYCLE:   351 TIME:   0.024 TIME LEFT:  2.00D  GRAD.:     0.464 HEAT:-128.1729
 CYCLE:   352 TIME:   0.024 TIME LEFT:  2.00D  GRAD.:     0.414 HEAT:-128.1732
 CYCLE:   353 TIME:   0.022 TIME LEFT:  2.00D  GRAD.:     0.382 HEAT:-128.1732
 CYCLE:   354 TIME:   0.022 TIME LEFT:  2.00D  GRAD.:     3.002 HEAT:-128.1692
 CYCLE:   355 TIME:   0.022 TIME LEFT:  2.00D  GRAD.:     0.295 HEAT:-128.1734
 CYCLE:   356 TIME:   0.024 TIME LEFT:  2.00D  GRAD.:     0.609 HEAT:-128.1731
 CYCLE:   357 TIME:   0.024 TIME LEFT:  2.00D  GRAD.:     0.245 HEAT:-128.1736
 CYCLE:   358 TIME:   0.022 TIME LEFT:  2.00D  GRAD.:     0.283 HEAT:-128.1737
 CYCLE:   359 TIME:   0.024 TIME LEFT:  2.00D  GRAD.:     0.399 HEAT:-128.1738
 CYCLE:   360 TIME:   0.022 TIME LEFT:  2.00D  GRAD.:     0.222 HEAT:-128.1739
 CYCLE:   361 TIME:   0.023 TIME LEFT:  2.00D  GRAD.:     0.133 HEAT:-128.1740
 CYCLE:   362 TIME:   0.024 TIME LEFT:  2.00D  GRAD.:     0.456 HEAT:-128.1746
 CYCLE:   363 TIME:   0.022 TIME LEFT:  2.00D  GRAD.:     0.214 HEAT:-128.1747
 CYCLE:   364 TIME:   0.023 TIME LEFT:  2.00D  GRAD.:     0.199 HEAT:-128.1745
 CYCLE:   365 TIME:   0.021 TIME LEFT:  2.00D  GRAD.:     0.108 HEAT:-128.1745
 CYCLE:   366 TIME:   0.024 TIME LEFT:  2.00D  GRAD.:     3.557 HEAT:-128.1725
 CYCLE:   367 TIME:   0.022 TIME LEFT:  2.00D  GRAD.:     1.698 HEAT:-128.1761
 CYCLE:   368 TIME:   0.024 TIME LEFT:  2.00D  GRAD.:     0.907 HEAT:-128.1782
 CYCLE:   369 TIME:   0.024 TIME LEFT:  2.00D  GRAD.:     1.533 HEAT:-128.1783
 CYCLE:   370 TIME:   0.022 TIME LEFT:  2.00D  GRAD.:     0.557 HEAT:-128.1791
 CYCLE:   371 TIME:   0.024 TIME LEFT:  2.00D  GRAD.:     0.439 HEAT:-128.1795
 CYCLE:   372 TIME:   0.022 TIME LEFT:  2.00D  GRAD.:     0.474 HEAT:-128.1797
 CYCLE:   373 TIME:   0.024 TIME LEFT:  2.00D  GRAD.:     0.689 HEAT:-128.1798
 CYCLE:   374 TIME:   0.023 TIME LEFT:  2.00D  GRAD.:     0.348 HEAT:-128.1799
 CYCLE:   375 TIME:   0.022 TIME LEFT:  2.00D  GRAD.:     0.256 HEAT:-128.1800
 CYCLE:   376 TIME:   0.022 TIME LEFT:  2.00D  GRAD.:     0.404 HEAT:-128.1800
 CYCLE:   377 TIME:   0.022 TIME LEFT:  2.00D  GRAD.:     0.307 HEAT:-128.1801
 CYCLE:   378 TIME:   0.024 TIME LEFT:  2.00D  GRAD.:     1.696 HEAT:-128.1785
 CYCLE:   379 TIME:   0.022 TIME LEFT:  2.00D  GRAD.:     0.246 HEAT:-128.1804
 CYCLE:   380 TIME:   0.023 TIME LEFT:  2.00D  GRAD.:     0.170 HEAT:-128.1804
 CYCLE:   381 TIME:   0.022 TIME LEFT:  2.00D  GRAD.:     0.221 HEAT:-128.1804
 CYCLE:   382 TIME:   0.022 TIME LEFT:  2.00D  GRAD.:     0.426 HEAT:-128.1806
 CYCLE:   383 TIME:   0.023 TIME LEFT:  2.00D  GRAD.:     0.241 HEAT:-128.1806
 CYCLE:   384 TIME:   0.023 TIME LEFT:  2.00D  GRAD.:     0.962 HEAT:-128.1816
 CYCLE:   385 TIME:   0.023 TIME LEFT:  2.00D  GRAD.:     0.603 HEAT:-128.1820
 CYCLE:   386 TIME:   0.024 TIME LEFT:  2.00D  GRAD.:     0.625 HEAT:-128.1829
 CYCLE:   387 TIME:   0.023 TIME LEFT:  2.00D  GRAD.:     0.540 HEAT:-128.1836
 CYCLE:   388 TIME:   0.024 TIME LEFT:  2.00D  GRAD.:     0.575 HEAT:-128.1853
 CYCLE:   389 TIME:   0.024 TIME LEFT:  2.00D  GRAD.:     0.531 HEAT:-128.1854
 CYCLE:   390 TIME:   0.023 TIME LEFT:  2.00D  GRAD.:     0.305 HEAT:-128.1855
 CYCLE:   391 TIME:   0.023 TIME LEFT:  2.00D  GRAD.:     0.335 HEAT:-128.1855
 CYCLE:   392 TIME:   0.025 TIME LEFT:  2.00D  GRAD.:     0.814 HEAT:-128.1845
 CYCLE:   393 TIME:   0.023 TIME LEFT:  2.00D  GRAD.:     0.376 HEAT:-128.1852
 CYCLE:   394 TIME:   0.023 TIME LEFT:  2.00D  GRAD.:     0.324 HEAT:-128.1852
 CYCLE:   395 TIME:   0.022 TIME LEFT:  2.00D  GRAD.:     0.365 HEAT:-128.1853
 CYCLE:   396 TIME:   0.023 TIME LEFT:  2.00D  GRAD.:     0.301 HEAT:-128.1854
 CYCLE:   397 TIME:   0.023 TIME LEFT:  2.00D  GRAD.:     0.388 HEAT:-128.1858
 CYCLE:   398 TIME:   0.024 TIME LEFT:  2.00D  GRAD.:     0.251 HEAT:-128.1858
 CYCLE:   399 TIME:   0.021 TIME LEFT:  2.00D  GRAD.:     0.191 HEAT:-128.1859
 CYCLE:   400 TIME:   0.024 TIME LEFT:  2.00D  GRAD.:     0.528 HEAT:-128.1855
 CYCLE:   401 TIME:   0.023 TIME LEFT:  2.00D  GRAD.:     0.166 HEAT:-128.1863
 CYCLE:   402 TIME:   0.023 TIME LEFT:  2.00D  GRAD.:     0.129 HEAT:-128.1865
 CYCLE:   403 TIME:   0.059 TIME LEFT:  2.00D  GRAD.:     3.787 HEAT:-128.1811
 CYCLE:   404 TIME:   0.023 TIME LEFT:  2.00D  GRAD.:     0.669 HEAT:-128.1887
 CYCLE:   405 TIME:   0.024 TIME LEFT:  2.00D  GRAD.:     1.258 HEAT:-128.1895
 CYCLE:   406 TIME:   0.024 TIME LEFT:  2.00D  GRAD.:     0.986 HEAT:-128.1896
 CYCLE:   407 TIME:   0.024 TIME LEFT:  2.00D  GRAD.:     0.415 HEAT:-128.1899
 CYCLE:   408 TIME:   0.023 TIME LEFT:  2.00D  GRAD.:     0.195 HEAT:-128.1900
 CYCLE:   409 TIME:   0.023 TIME LEFT:  2.00D  GRAD.:     0.539 HEAT:-128.1904
 CYCLE:   410 TIME:   0.022 TIME LEFT:  2.00D  GRAD.:     0.409 HEAT:-128.1907
 CYCLE:   411 TIME:   0.026 TIME LEFT:  2.00D  GRAD.:     1.984 HEAT:-128.1915
 CYCLE:   412 TIME:   0.024 TIME LEFT:  2.00D  GRAD.:     0.459 HEAT:-128.1922
 CYCLE:   413 TIME:   0.022 TIME LEFT:  2.00D  GRAD.:     0.335 HEAT:-128.1926
 CYCLE:   414 TIME:   0.024 TIME LEFT:  2.00D  GRAD.:     1.254 HEAT:-128.1930
 CYCLE:   415 TIME:   0.024 TIME LEFT:  2.00D  GRAD.:     0.196 HEAT:-128.1932
 CYCLE:   416 TIME:   0.023 TIME LEFT:  2.00D  GRAD.:     0.144 HEAT:-128.1933
 CYCLE:   417 TIME:   0.024 TIME LEFT:  2.00D  GRAD.:     1.231 HEAT:-128.1933
 CYCLE:   418 TIME:   0.023 TIME LEFT:  2.00D  GRAD.:     0.340 HEAT:-128.1937
 CYCLE:   419 TIME:   0.023 TIME LEFT:  2.00D  GRAD.:     0.320 HEAT:-128.1939
 CYCLE:   420 TIME:   0.024 TIME LEFT:  2.00D  GRAD.:     0.931 HEAT:-128.1934
 CYCLE:   421 TIME:   0.024 TIME LEFT:  2.00D  GRAD.:     0.263 HEAT:-128.1941
 CYCLE:   422 TIME:   0.023 TIME LEFT:  2.00D  GRAD.:     0.167 HEAT:-128.1942
 CYCLE:   423 TIME:   0.024 TIME LEFT:  2.00D  GRAD.:     0.173 HEAT:-128.1942
 CYCLE:   424 TIME:   0.023 TIME LEFT:  2.00D  GRAD.:     0.083 HEAT:-128.1942

     RMS GRADIENT =  0.08304  IS LESS THAN CUTOFF =  0.10000



 -------------------------------------------------------------------------------
 PM3 CHARGE=0 GNORM=0.100  static




     GEOMETRY OPTIMISED USING EIGENVECTOR FOLLOWING (EF).     
     SCF FIELD WAS ACHIEVED                                   


                              PM3 CALCULATION
                                                       MOPAC2012 (Version: 12.239L)
                                                       Sat Jan 12 10:59:15 2013
                                                       No. of days left = 227




          FINAL HEAT OF FORMATION =       -128.19421 KCAL/MOL =    -536.36456 KJ/MOL


          TOTAL ENERGY            =      -3110.21279 EV
          ELECTRONIC ENERGY       =     -19275.31194 EV  POINT GROUP:     C1  
          CORE-CORE REPULSION     =      16165.09915 EV
          COSMO AREA              =        296.70 SQUARE ANGSTROMS
          COSMO VOLUME            =        316.08 CUBIC ANGSTROMS

          GRADIENT NORM           =          0.08304
          IONIZATION POTENTIAL    =          9.082483 EV
          HOMO LUMO ENERGIES (EV) =         -9.082 -0.759
          NO. OF FILLED LEVELS    =         49
          MOLECULAR WEIGHT        =        250.294

          MOLECULAR DIMENSIONS (Angstroms)

            Atom       Atom       Distance
            H    30    H    25    13.26129
            H    36    O    12     6.71225
            H    20    H    33     4.35461


          SCF CALCULATIONS        =        454
          COMPUTATION TIME        =         10.432 SECONDS




   ATOM   CHEMICAL          X               Y               Z
  NUMBER   SYMBOL      (ANGSTROMS)     (ANGSTROMS)     (ANGSTROMS)
 
     1       C         -1.18146044  *  -0.28730658  *  -0.09610864  *
     2       C         -0.57122976  *   0.60622777  *  -0.98717399  *
     3       C          0.80377026  *   0.76926355  *  -0.99012256  *
     4       C          1.58945444  *   0.02875650  *  -0.08949588  *
     5       C          0.99289249  *  -0.86652221  *   0.80507752  *
     6       C         -0.38740465  *  -1.01526696  *   0.79346428  *
     7       O          2.94092346  *   0.27840015  *  -0.18926767  *
     8       C          3.79915499  *  -0.42662787  *   0.67405156  *
     9       C         -2.63162282  *  -0.44148349  *  -0.11464636  *
    10       C         -3.27460477  *  -1.27636446  *   0.71298745  *
    11       C         -4.74005725  *  -1.45568313  *   0.75001501  *
    12       O         -5.38591129  *  -1.90079388  *   1.68076512  *
    13       O         -5.38924576  *  -1.08526262  *  -0.39383898  *
    14       C         -6.80842913  *  -1.23096273  *  -0.44632552  *
    15       C         -7.25842647  *  -0.72966442  *  -1.82617216  *
    16       O         -7.36265800  *  -1.76433912  *  -2.78361840  *
    17       C         -6.16023354  *  -2.08560717  *  -3.45995444  *
    18       C         -5.63414830  *  -0.94717153  *  -4.31685268  *
    19       H         -1.18672264  *   1.18170933  *  -1.68881239  *
    20       H          1.27585830  *   1.46967630  *  -1.68915983  *
    21       H          1.59047398  *  -1.45138386  *   1.51349304  *
    22       H         -0.87937056  *  -1.71303078  *   1.48988286  *
    23       H          3.60430741  *  -0.20147405  *   1.72895812  *
    24       H          3.75306613  *  -1.50986188  *   0.51289283  *
    25       H          4.78223368  *  -0.04557981  *   0.38439807  *
    26       H         -3.17359440  *   0.16997617  *  -0.84945601  *
    27       H         -2.70732360  *  -1.87215207  *   1.44907070  *
    28       H         -7.08739561  *  -2.28826259  *  -0.27549947  *
    29       H         -7.26917110  *  -0.62315187  *   0.35478099  *
    30       H         -8.29861132  *  -0.36533676  *  -1.77225162  *
    31       H         -6.61573040  *   0.09454884  *  -2.20872360  *
    32       H         -5.39459860  *  -2.42651932  *  -2.73734669  *
    33       H         -6.47453457  *  -2.95318888  *  -4.06424944  *
    34       H         -5.53634480  *  -0.02532210  *  -3.71893087  *
    35       H         -4.64847081  *  -1.19139407  *  -4.72926108  *
    36       H         -6.30102337  *  -0.72053172  *  -5.15806278  *

           Empirical Formula: C14 H18 O4  =    36 atoms



      MOLECULAR POINT GROUP   :   C1  


                  EIGENVALUES  
 -41.24915 -40.54790 -38.78679 -37.71643 -35.52743 -33.39607 -31.65197 -30.36096
 -29.56509 -28.29852 -26.86222 -24.00144 -23.32859 -22.22617 -21.15326 -20.97471
 -19.97632 -19.30651 -18.16118 -17.86991 -17.79238 -17.07450 -16.71810 -16.60467
 -16.57887 -16.03328 -15.65043 -15.46635 -15.25279 -14.90066 -14.67851 -14.27020
 -13.94146 -13.89073 -13.60367 -13.49893 -13.24725 -13.12104 -13.09477 -12.57820
 -12.45348 -12.40889 -11.82086 -11.31175 -11.22706 -11.03007 -10.77086 -10.18939
  -9.08248  -0.75854   0.04717   0.68378   1.73748   1.88277   2.14731   2.62329
   2.70216   2.82873   2.96160   3.08172   3.21608   3.25505   3.36172   3.37867
   3.55681   3.64307   3.66241   3.73095   3.81394   3.83039   3.84600   3.98430
   4.06359   4.11941   4.27235   4.37037   4.39277   4.49765   4.64176   4.67376
   4.69911   4.74811   4.91587   5.03351   5.50216   5.61850   5.90221   5.95999
   6.16852   7.22367


              NET ATOMIC CHARGES AND DIPOLE CONTRIBUTIONS

  ATOM NO.   TYPE          CHARGE      No. of ELECS.   s-Pop       p-Pop       
    1          C          -0.122235        4.1222     1.16951     2.95273
    2          C          -0.040250        4.0403     1.17605     2.86420
    3          C          -0.147542        4.1475     1.17718     2.97036
    4          C           0.108033        3.8920     1.17185     2.72012
    5          C          -0.185421        4.1854     1.17801     3.00742
    6          C          -0.041203        4.0412     1.17555     2.86565
    7          O          -0.185603        6.1856     1.83596     4.34965
    8          C           0.050043        3.9500     1.13413     2.81583
    9          C           0.008934        3.9911     1.17644     2.81462
   10          C          -0.207547        4.2075     1.19108     3.01646
   11          C           0.416483        3.5835     1.17109     2.41243
   12          O          -0.383003        6.3830     1.86640     4.51660
   13          O          -0.275648        6.2756     1.83651     4.43914
   14          C           0.042162        3.9578     1.16769     2.79015
   15          C           0.031073        3.9689     1.16399     2.80493
   16          O          -0.261603        6.2616     1.85576     4.40584
   17          C           0.053404        3.9466     1.15720     2.78940
   18          C          -0.151188        4.1512     1.14628     3.00491
   19          H           0.105210        0.8948     0.89479
   20          H           0.123563        0.8764     0.87644
   21          H           0.119882        0.8801     0.88012
   22          H           0.111294        0.8887     0.88871
   23          H           0.029998        0.9700     0.97000
   24          H           0.029859        0.9701     0.97014
   25          H           0.052795        0.9472     0.94720
   26          H           0.109485        0.8905     0.89051
   27          H           0.130215        0.8698     0.86979
   28          H           0.066809        0.9332     0.93319
   29          H           0.052101        0.9479     0.94790
   30          H           0.062062        0.9379     0.93794
   31          H           0.058203        0.9418     0.94180
   32          H           0.041135        0.9589     0.95887
   33          H           0.055993        0.9440     0.94401
   34          H           0.047171        0.9528     0.95283
   35          H           0.047279        0.9527     0.95272
   36          H           0.048057        0.9519     0.95194
 DIPOLE           X         Y         Z       TOTAL
 POINT-CHG.     3.079     1.120    -1.239     3.503
 HYBRID         0.313    -0.041     0.367     0.484
 SUM            3.392     1.079    -0.872     3.665


          CARTESIAN COORDINATES 

    NO.       ATOM               X         Y         Z

     1         C                 -1.1815   -0.2873   -0.0961
     2         C                 -0.5712    0.6062   -0.9872
     3         C                  0.8038    0.7693   -0.9901
     4         C                  1.5895    0.0288   -0.0895
     5         C                  0.9929   -0.8665    0.8051
     6         C                 -0.3874   -1.0153    0.7935
     7         O                  2.9409    0.2784   -0.1893
     8         C                  3.7992   -0.4266    0.6741
     9         C                 -2.6316   -0.4415   -0.1146
    10         C                 -3.2746   -1.2764    0.7130
    11         C                 -4.7401   -1.4557    0.7500
    12         O                 -5.3859   -1.9008    1.6808
    13         O                 -5.3892   -1.0853   -0.3938
    14         C                 -6.8084   -1.2310   -0.4463
    15         C                 -7.2584   -0.7297   -1.8262
    16         O                 -7.3627   -1.7643   -2.7836
    17         C                 -6.1602   -2.0856   -3.4600
    18         C                 -5.6341   -0.9472   -4.3169
    19         H                 -1.1867    1.1817   -1.6888
    20         H                  1.2759    1.4697   -1.6892
    21         H                  1.5905   -1.4514    1.5135
    22         H                 -0.8794   -1.7130    1.4899
    23         H                  3.6043   -0.2015    1.7290
    24         H                  3.7531   -1.5099    0.5129
    25         H                  4.7822   -0.0456    0.3844
    26         H                 -3.1736    0.1700   -0.8495
    27         H                 -2.7073   -1.8722    1.4491
    28         H                 -7.0874   -2.2883   -0.2755
    29         H                 -7.2692   -0.6232    0.3548
    30         H                 -8.2986   -0.3653   -1.7723
    31         H                 -6.6157    0.0945   -2.2087
    32         H                 -5.3946   -2.4265   -2.7373
    33         H                 -6.4745   -2.9532   -4.0642
    34         H                 -5.5363   -0.0253   -3.7189
    35         H                 -4.6485   -1.1914   -4.7293
    36         H                 -6.3010   -0.7205   -5.1581


          ATOMIC ORBITAL ELECTRON POPULATIONS

   1.16951   0.93970   1.01089   1.00215   1.17605   0.94619   0.95678   0.96123
   1.17718   0.94490   1.01859   1.00687   1.17185   0.84474   0.93633   0.93905
   1.17801   0.96424   1.02368   1.01949   1.17555   0.93477   0.96677   0.96411
   1.83596   1.13535   1.63226   1.58203   1.13413   0.92236   0.95730   0.93617
   1.17644   0.92747   0.94294   0.94421   1.19108   0.93571   1.04374   1.03701
   1.17109   0.86454   0.74494   0.80295   1.86640   1.68318   1.40072   1.43271
   1.83651   1.22376   1.80323   1.41215   1.16769   0.80177   1.01737   0.97100
   1.16399   1.00294   0.91601   0.88598   1.85576   1.31920   1.55678   1.52986
   1.15720   0.89017   0.95643   0.94279   1.14628   1.01020   0.99300   1.00172
   0.89479   0.87644   0.88012   0.88871   0.97000   0.97014   0.94720   0.89051
   0.86979   0.93319   0.94790   0.93794   0.94180   0.95887   0.94401   0.95283
   0.95272   0.95194
 ******************** FINITE-FIELD POLARIZABILITIES ********************

    THE F-F METHOD IS PERFORMED USING BOTH AN ENERGY
    AND DIPOLE MOMENT EXPANSION.  THESE RESULTS ARE
    LISTED BELOW AS "H.o.F." AND "Dipole", RESPECTIVELY.

          MOLECULAR WEIGHT =  250.29



          ROTATIONAL CONSTANTS IN CM(-1)

          A =    0.02790708   B =    0.00461189   C =    0.00411308



           PRINCIPAL MOMENTS OF INERTIA IN UNITS OF 10**(-40)*GRAM-CM**2

          A =     1003.0708   B =     6069.6905   C =     6805.7896


 ROTATION MATRIX FOR ORIENTATION OF MOLECULE:

         0.963558    0.187992   -0.190303
         0.149651    0.210832    0.965999
         0.221722   -0.959275    0.175016


          CARTESIAN COORDINATES 

    NO.       ATOM         X         Y         Z

     1         C        1.6375   -0.1003    0.2919
     2         C        2.1616    1.0576    0.8830
     3         C        3.5103    1.3533    0.7783
     4         C        4.3562    0.4809    0.0711
     5         C        3.8457   -0.6781   -0.5237
     6         C        2.4909   -0.9578   -0.4067
     7         O        5.6736    0.8833    0.0376
     8         C        6.5865    0.0679   -0.6557
     9         C        0.2130   -0.3876    0.4157
    10         C       -0.3480   -1.4784   -0.1236
    11         C       -1.7787   -1.8273   -0.0114
    12         O       -2.2613   -2.9354   -0.1556
    13         O       -2.6024   -0.7739    0.2698
    14         C       -4.0033   -1.0211    0.3899
    15         C       -4.6678    0.3237    0.7183
    16         O       -5.1354    1.0044   -0.4289
    17         C       -4.1748    1.8115   -1.0865
    18         C       -3.6875    2.9724   -0.2368
    19         H        1.4991    1.7363    1.4333
    20         H        3.9150    2.2603    1.2427
    21         H        4.4911   -1.3686   -1.0784
    22         H        2.0668   -1.8655   -0.8652
    23         H        6.6663   -0.9332   -0.2165
    24         H        6.3442   -0.0146   -1.7215
    25         H        7.5265    0.6109   -0.5254
    26         H       -0.3807    0.3443    0.9809
    27         H        0.2726   -2.2035   -0.6782
    28         H       -4.3925   -1.4603   -0.5485
    29         H       -4.1787   -1.7480    1.2049
    30         H       -5.6036    0.1532    1.2776
    31         H       -4.0100    0.9852    1.3252
    32         H       -3.3279    1.1904   -1.4350
    33         H       -4.7415    2.1492   -1.9705
    34         H       -3.3228    2.6116    0.7397
    35         H       -2.8658    3.5018   -0.7325
    36         H       -4.4827    3.7018   -0.0382


 ENERGY OF "REORIENTED" SYSTEM WITHOUT FIELD:     -128.19425 Kcal/mol


 APPLIED ELECTRIC FIELD MAGNITUDE:         0.10284 VOLTS PER ANGSTROM
    Step  1 of 36 done (+X)
    Step  2 of 36 done (-X)
    Step  3 of 36 done (+2X)
    Step  4 of 36 done (-2X)
    Step  5 of 36 done (+Y)
    Step  6 of 36 done (-Y)
    Step  7 of 36 done (+2Y)
    Step  8 of 36 done (-2Y)
    Step  9 of 36 done (+Y+X)
    Step 10 of 36 done (+Y-X)
    Step 11 of 36 done (-Y-X)
    Step 12 of 36 done (-Y+X)
    Step 13 of 36 done (+2Y+2X)
    Step 14 of 36 done (+2Y-2X)
    Step 15 of 36 done (-2Y-2X)
    Step 16 of 36 done (-2Y+2X)
    Step 17 of 36 done (+Z)
    Step 18 of 36 done (-Z)
    Step 19 of 36 done (+2Z)
    Step 20 of 36 done (-2Z)
    Step 21 of 36 done (+Z+X)
    Step 22 of 36 done (+Z-X)
    Step 23 of 36 done (-Z-X)
    Step 24 of 36 done (-Z+X)
    Step 25 of 36 done (+2Z+2X)
    Step 26 of 36 done (+2Z-2X)
    Step 27 of 36 done (-2Z-2X)
    Step 28 of 36 done (-2Z+2X)
    Step 29 of 36 done (+Z+Y)
    Step 30 of 36 done (+Z-Y)
    Step 31 of 36 done (-Z-Y)
    Step 32 of 36 done (-Z+Y)
    Step 33 of 36 done (+2Z+2Y)
    Step 34 of 36 done (+2Z-2Y)
    Step 35 of 36 done (-2Z-2Y)
    Step 36 of 36 done (-2Z+2Y)


 ****************************** DIPOLE ******************************


                     H.o.F.         Dipole

     X             -1.273338      -1.273010
     Y             -0.669465      -0.669440
     X             -0.096136      -0.096134


 MAGNITUDE:         1.441810       1.441509  (A.U.)
                    3.664715       3.663949  (DEBYE)


 ****************************** POLARIZABILITY ********************



 Polarizability Tensor from Heat of Formation:


                     1          2          3
 ------------------------------------------
          1 202.374724
          2  30.940659 183.622990
          3 -10.155169  26.831775 169.048686




    ROOT NO.    1           2           3

           136.64680   191.73953   226.66006
  
         1   0.40219    -0.52772     0.74817
         2  -0.63927     0.42313     0.64211
         3   0.65542     0.73653     0.16717

 Polarizability Tensor from Dipole Moment:


                     1          2          3
 ------------------------------------------
          1 202.335156
          2  30.667776 183.606517
          3 -10.079729  26.839118 169.054379




    ROOT NO.    1           2           3

           136.80965   191.79666   226.38974
  
         1   0.40013    -0.52988     0.74775
         2  -0.63899     0.42357     0.64209
         3   0.65695     0.73472     0.16911


 Average Polarizability from:     H.o.F         Dipole
                              185.015466     184.998684  A.U.
                               27.415592      27.413105  ANG.**3
                            5.482970D-23   5.482473D-23  ESU



 TOTAL CPU TIME:            10.89 SECONDS

 == MOPAC DONE ==
