 *******************************************************************************
 ** Site#: 14498           For non-commercial use only        Version 12.239L **
 *******************************************************************************
 ** Cite this work as: MOPAC2012, James J. P. Stewart, Stewart Computational  **
 ** Chemistry, Version 12.239L web: HTTP://OpenMOPAC.net  Days remaining: 227 **
 *******************************************************************************
 **                                                                           **
 **                                MOPAC2012                                  **
 **                                                                           **
 *******************************************************************************

                            PM3 CALCULATION RESULTS


 *******************************************************************************
 *  CALCULATION DONE:                                Sat Jan 12 10:59:02 2013  *
 *  PM3      - The PM3 Hamiltonian to be used
 *  STATIC   - CALCULATE STATIC FIELD POLARIZABILITIES
 *
 *
 *
 *                 CHARGE ON SYSTEM =     0
 *
 *
 *
 *  T=       - A TIME OF 172800.0 SECONDS REQUESTED
 *  DUMP=N   - RESTART FILE WRITTEN EVERY  7200.000 SECONDS
 *  GNORM=   - EXIT WHEN GRADIENT NORM DROPS BELOW .100    
 *******************************************************************************
 PM3 CHARGE=0 GNORM=0.100  static


   ATOM   CHEMICAL          X               Y               Z
  NUMBER   SYMBOL      (ANGSTROMS)     (ANGSTROMS)     (ANGSTROMS)
 
     1       C         -0.57260000  *   1.05460000  *   0.23930000  *
     2       C          0.79530000  *   1.12650000  *   0.01880000  *
     3       C          1.50050000  *  -0.05200000  *  -0.06900000  *
     4       C          0.81200000  *  -1.26390000  *  -0.00470000  *
     5       C         -0.58730000  *  -1.29170000  *  -0.05480000  *
     6       C         -1.32180000  *  -0.10480000  *   0.02210000  *
     7       C         -2.82330000  *  -0.11890000  *  -0.13120000  *
     8       O         -3.36320000  *  -1.21440000  *  -0.26480000  *
     9       C         -3.68910000  *   1.11380000  *  -0.21140000  *
    10       C         -5.07110000  *   0.97290000  *  -0.38280000  *
    11       C         -5.87020000  *   2.10810000  *  -0.59940000  *
    12       C         -5.33620000  *   3.39170000  *  -0.48260000  *
    13       C         -4.00180000  *   3.54520000  *  -0.19090000  *
    14       C         -3.19550000  *   2.42020000  *  -0.19640000  *
    15       O         -1.16250000  *  -2.53080000  *  -0.14910000  *
    16       H         -0.98120000  *   1.94000000  *   0.69280000  *
    17       H          1.28880000  *   2.09520000  *   0.01010000  *
    18       H          2.58340000  *  -0.01960000  *  -0.11710000  *
    19       H          1.36820000  *  -2.19160000  *   0.07510000  *
    20       H         -5.53410000  *  -0.01260000  *  -0.40900000  *
    21       H         -6.91500000  *   1.99440000  *  -0.87230000  *
    22       H         -5.93650000  *   4.27690000  *  -0.66020000  *
    23       H         -3.54170000  *   4.51900000  *  -0.04890000  *
    24       H         -2.16250000  *   2.68040000  *  -0.29090000  *
    25       H         -2.13270000  *  -2.40020000  *  -0.25660000  *
 


          CARTESIAN COORDINATES 

    NO.       ATOM         X         Y         Z

     1         C       -0.5726    1.0546    0.2393
     2         C        0.7953    1.1265    0.0188
     3         C        1.5005   -0.0520   -0.0690
     4         C        0.8120   -1.2639   -0.0047
     5         C       -0.5873   -1.2917   -0.0548
     6         C       -1.3218   -0.1048    0.0221
     7         C       -2.8233   -0.1189   -0.1312
     8         O       -3.3632   -1.2144   -0.2648
     9         C       -3.6891    1.1138   -0.2114
    10         C       -5.0711    0.9729   -0.3828
    11         C       -5.8702    2.1081   -0.5994
    12         C       -5.3362    3.3917   -0.4826
    13         C       -4.0018    3.5452   -0.1909
    14         C       -3.1955    2.4202   -0.1964
    15         O       -1.1625   -2.5308   -0.1491
    16         H       -0.9812    1.9400    0.6928
    17         H        1.2888    2.0952    0.0101
    18         H        2.5834   -0.0196   -0.1171
    19         H        1.3682   -2.1916    0.0751
    20         H       -5.5341   -0.0126   -0.4090
    21         H       -6.9150    1.9944   -0.8723
    22         H       -5.9365    4.2769   -0.6602
    23         H       -3.5417    4.5190   -0.0489
    24         H       -2.1625    2.6804   -0.2909
    25         H       -2.1327   -2.4002   -0.2566

  H: (PM3): J. J. P. STEWART, J. COMP. CHEM. 10, 209 (1989).
  C: (PM3): J. J. P. STEWART, J. COMP. CHEM. 10, 209 (1989).
  O: (PM3): J. J. P. STEWART, J. COMP. CHEM. 10, 209 (1989).

           Empirical Formula: C13 H10 O2  =    25 atoms



      MOLECULAR POINT GROUP   :   C1  


      RHF CALCULATION, NO. OF DOUBLY OCCUPIED LEVELS =   37

      Geometry optimization using EF

          DIAGONAL MATRIX USED AS START HESSIAN

 CYCLE:     1 TIME:   0.017 TIME LEFT:  2.00D  GRAD.:    91.935 HEAT:-13.58757
 CYCLE:     2 TIME:   0.023 TIME LEFT:  2.00D  GRAD.:   131.508 HEAT:-13.63133
 CYCLE:     3 TIME:   0.013 TIME LEFT:  2.00D  GRAD.:    80.751 HEAT:-16.48800
 CYCLE:     4 TIME:   0.022 TIME LEFT:  2.00D  GRAD.:    74.836 HEAT:-17.18357
 CYCLE:     5 TIME:   0.011 TIME LEFT:  2.00D  GRAD.:    53.012 HEAT:-18.02407
 CYCLE:     6 TIME:   0.012 TIME LEFT:  2.00D  GRAD.:    78.314 HEAT:-18.29984
 CYCLE:     7 TIME:   0.021 TIME LEFT:  2.00D  GRAD.:    65.824 HEAT:-18.83979
 CYCLE:     8 TIME:   0.012 TIME LEFT:  2.00D  GRAD.:    56.392 HEAT:-19.16849
 CYCLE:     9 TIME:   0.012 TIME LEFT:  2.00D  GRAD.:    40.889 HEAT:-19.67661
 CYCLE:    10 TIME:   0.012 TIME LEFT:  2.00D  GRAD.:    44.717 HEAT:-20.06337
 CYCLE:    11 TIME:   0.011 TIME LEFT:  2.00D  GRAD.:    53.606 HEAT:-20.34188
 CYCLE:    12 TIME:   0.012 TIME LEFT:  2.00D  GRAD.:    45.302 HEAT:-20.88270
 CYCLE:    13 TIME:   0.012 TIME LEFT:  2.00D  GRAD.:    51.717 HEAT:-21.26619
 CYCLE:    14 TIME:   0.012 TIME LEFT:  2.00D  GRAD.:    26.240 HEAT:-22.17720
 CYCLE:    15 TIME:   0.012 TIME LEFT:  2.00D  GRAD.:    60.121 HEAT:-22.44097
 CYCLE:    16 TIME:   0.012 TIME LEFT:  2.00D  GRAD.:    28.712 HEAT:-23.60237
 CYCLE:    17 TIME:   0.012 TIME LEFT:  2.00D  GRAD.:    44.674 HEAT:-23.67443
 CYCLE:    18 TIME:   0.012 TIME LEFT:  2.00D  GRAD.:    26.087 HEAT:-24.31900
 CYCLE:    19 TIME:   0.021 TIME LEFT:  2.00D  GRAD.:    22.425 HEAT:-24.49118
 CYCLE:    20 TIME:   0.011 TIME LEFT:  2.00D  GRAD.:    19.229 HEAT:-24.63007
 CYCLE:    21 TIME:   0.012 TIME LEFT:  2.00D  GRAD.:    16.281 HEAT:-24.80613
 CYCLE:    22 TIME:   0.011 TIME LEFT:  2.00D  GRAD.:    13.637 HEAT:-24.96656
 CYCLE:    23 TIME:   0.012 TIME LEFT:  2.00D  GRAD.:    19.507 HEAT:-25.15518
 CYCLE:    24 TIME:   0.012 TIME LEFT:  2.00D  GRAD.:    23.759 HEAT:-25.23840
 CYCLE:    25 TIME:   0.012 TIME LEFT:  2.00D  GRAD.:    11.029 HEAT:-25.45875
 CYCLE:    26 TIME:   0.011 TIME LEFT:  2.00D  GRAD.:    12.256 HEAT:-25.56145
 CYCLE:    27 TIME:   0.012 TIME LEFT:  2.00D  GRAD.:    13.069 HEAT:-25.74003
 CYCLE:    28 TIME:   0.012 TIME LEFT:  2.00D  GRAD.:    28.544 HEAT:-25.90305
 CYCLE:    29 TIME:   0.012 TIME LEFT:  2.00D  GRAD.:    29.962 HEAT:-25.94998
 CYCLE:    30 TIME:   0.011 TIME LEFT:  2.00D  GRAD.:    18.381 HEAT:-26.16367
 CYCLE:    31 TIME:   0.012 TIME LEFT:  2.00D  GRAD.:    17.761 HEAT:-26.23577
 CYCLE:    32 TIME:   0.012 TIME LEFT:  2.00D  GRAD.:    12.344 HEAT:-26.33458
 CYCLE:    33 TIME:   0.011 TIME LEFT:  2.00D  GRAD.:    15.361 HEAT:-26.39012
 CYCLE:    34 TIME:   0.012 TIME LEFT:  2.00D  GRAD.:    12.478 HEAT:-26.49421
 CYCLE:    35 TIME:   0.011 TIME LEFT:  2.00D  GRAD.:    11.712 HEAT:-26.58279
 CYCLE:    36 TIME:   0.011 TIME LEFT:  2.00D  GRAD.:     9.019 HEAT:-26.64259
 CYCLE:    37 TIME:   0.011 TIME LEFT:  2.00D  GRAD.:     6.004 HEAT:-26.68335
 CYCLE:    38 TIME:   0.011 TIME LEFT:  2.00D  GRAD.:     5.696 HEAT:-26.71719
 CYCLE:    39 TIME:   0.012 TIME LEFT:  2.00D  GRAD.:     7.170 HEAT:-26.75839
 CYCLE:    40 TIME:   0.011 TIME LEFT:  2.00D  GRAD.:     7.318 HEAT:-26.78257
 CYCLE:    41 TIME:   0.012 TIME LEFT:  2.00D  GRAD.:     5.327 HEAT:-26.81760
 CYCLE:    42 TIME:   0.011 TIME LEFT:  2.00D  GRAD.:     4.910 HEAT:-26.84843
 CYCLE:    43 TIME:   0.011 TIME LEFT:  2.00D  GRAD.:     4.896 HEAT:-26.88445
 CYCLE:    44 TIME:   0.011 TIME LEFT:  2.00D  GRAD.:     5.147 HEAT:-26.93387
 CYCLE:    45 TIME:   0.012 TIME LEFT:  2.00D  GRAD.:     5.896 HEAT:-26.98806
 CYCLE:    46 TIME:   0.012 TIME LEFT:  2.00D  GRAD.:    10.649 HEAT:-27.04595
 CYCLE:    47 TIME:   0.011 TIME LEFT:  2.00D  GRAD.:     6.208 HEAT:-27.11078
 CYCLE:    48 TIME:   0.011 TIME LEFT:  2.00D  GRAD.:     6.850 HEAT:-27.18306
 CYCLE:    49 TIME:   0.011 TIME LEFT:  2.00D  GRAD.:     8.172 HEAT:-27.27100
 CYCLE:    50 TIME:   0.012 TIME LEFT:  2.00D  GRAD.:     6.879 HEAT:-27.36856
 CYCLE:    51 TIME:   0.012 TIME LEFT:  2.00D  GRAD.:     8.953 HEAT:-27.47130
 CYCLE:    52 TIME:   0.012 TIME LEFT:  2.00D  GRAD.:     7.502 HEAT:-27.56606
 CYCLE:    53 TIME:   0.011 TIME LEFT:  2.00D  GRAD.:     8.864 HEAT:-27.64566
 CYCLE:    54 TIME:   0.012 TIME LEFT:  2.00D  GRAD.:    13.015 HEAT:-27.69262
 CYCLE:    55 TIME:   0.012 TIME LEFT:  2.00D  GRAD.:     7.724 HEAT:-27.79003
 CYCLE:    56 TIME:   0.012 TIME LEFT:  2.00D  GRAD.:    14.951 HEAT:-27.92026
 CYCLE:    57 TIME:   0.012 TIME LEFT:  2.00D  GRAD.:    19.609 HEAT:-28.09159
 CYCLE:    58 TIME:   0.012 TIME LEFT:  2.00D  GRAD.:    30.571 HEAT:-28.26565
 CYCLE:    59 TIME:   0.021 TIME LEFT:  2.00D  GRAD.:    27.281 HEAT:-28.45551
 CYCLE:    60 TIME:   0.012 TIME LEFT:  2.00D  GRAD.:    18.374 HEAT:-28.76278
 CYCLE:    61 TIME:   0.011 TIME LEFT:  2.00D  GRAD.:    11.353 HEAT:-28.93494
 CYCLE:    62 TIME:   0.012 TIME LEFT:  2.00D  GRAD.:    11.824 HEAT:-29.05103
 CYCLE:    63 TIME:   0.011 TIME LEFT:  2.00D  GRAD.:     6.059 HEAT:-29.15532
 CYCLE:    64 TIME:   0.011 TIME LEFT:  2.00D  GRAD.:     9.298 HEAT:-29.22717
 CYCLE:    65 TIME:   0.012 TIME LEFT:  2.00D  GRAD.:     9.738 HEAT:-29.31234
 CYCLE:    66 TIME:   0.011 TIME LEFT:  2.00D  GRAD.:     7.153 HEAT:-29.37615
 CYCLE:    67 TIME:   0.011 TIME LEFT:  2.00D  GRAD.:     7.603 HEAT:-29.42848
 CYCLE:    68 TIME:   0.012 TIME LEFT:  2.00D  GRAD.:     6.301 HEAT:-29.46120
 CYCLE:    69 TIME:   0.011 TIME LEFT:  2.00D  GRAD.:     5.360 HEAT:-29.49979
 CYCLE:    70 TIME:   0.011 TIME LEFT:  2.00D  GRAD.:     5.903 HEAT:-29.54841
 CYCLE:    71 TIME:   0.012 TIME LEFT:  2.00D  GRAD.:     8.738 HEAT:-29.58224
 CYCLE:    72 TIME:   0.011 TIME LEFT:  2.00D  GRAD.:     6.516 HEAT:-29.61401
 CYCLE:    73 TIME:   0.011 TIME LEFT:  2.00D  GRAD.:     4.918 HEAT:-29.65089
 CYCLE:    74 TIME:   0.012 TIME LEFT:  2.00D  GRAD.:     6.101 HEAT:-29.68832
 CYCLE:    75 TIME:   0.011 TIME LEFT:  2.00D  GRAD.:     6.994 HEAT:-29.72204
 CYCLE:    76 TIME:   0.011 TIME LEFT:  2.00D  GRAD.:     9.575 HEAT:-29.75696
 CYCLE:    77 TIME:   0.011 TIME LEFT:  2.00D  GRAD.:     4.858 HEAT:-29.79871
 CYCLE:    78 TIME:   0.012 TIME LEFT:  2.00D  GRAD.:     5.295 HEAT:-29.83436
 CYCLE:    79 TIME:   0.011 TIME LEFT:  2.00D  GRAD.:     5.420 HEAT:-29.87188
 CYCLE:    80 TIME:   0.012 TIME LEFT:  2.00D  GRAD.:     8.225 HEAT:-29.95546
 CYCLE:    81 TIME:   0.011 TIME LEFT:  2.00D  GRAD.:     8.007 HEAT:-30.02093
 CYCLE:    82 TIME:   0.012 TIME LEFT:  2.00D  GRAD.:     5.730 HEAT:-30.11351
 CYCLE:    83 TIME:   0.022 TIME LEFT:  2.00D  GRAD.:     9.447 HEAT:-30.20226
 CYCLE:    84 TIME:   0.012 TIME LEFT:  2.00D  GRAD.:     7.313 HEAT:-30.26044
 CYCLE:    85 TIME:   0.012 TIME LEFT:  2.00D  GRAD.:    10.717 HEAT:-30.33045
 CYCLE:    86 TIME:   0.011 TIME LEFT:  2.00D  GRAD.:    10.216 HEAT:-30.39208
 CYCLE:    87 TIME:   0.011 TIME LEFT:  2.00D  GRAD.:     9.491 HEAT:-30.45299
 CYCLE:    88 TIME:   0.012 TIME LEFT:  2.00D  GRAD.:     6.728 HEAT:-30.49264
 CYCLE:    89 TIME:   0.011 TIME LEFT:  2.00D  GRAD.:     6.396 HEAT:-30.52857
 CYCLE:    90 TIME:   0.011 TIME LEFT:  2.00D  GRAD.:     5.175 HEAT:-30.55707
 CYCLE:    91 TIME:   0.011 TIME LEFT:  2.00D  GRAD.:     5.726 HEAT:-30.58427
 CYCLE:    92 TIME:   0.011 TIME LEFT:  2.00D  GRAD.:     5.058 HEAT:-30.60316
 CYCLE:    93 TIME:   0.012 TIME LEFT:  2.00D  GRAD.:     7.730 HEAT:-30.62353
 CYCLE:    94 TIME:   0.010 TIME LEFT:  2.00D  GRAD.:     3.785 HEAT:-30.64271
 CYCLE:    95 TIME:   0.012 TIME LEFT:  2.00D  GRAD.:     3.266 HEAT:-30.66027
 CYCLE:    96 TIME:   0.011 TIME LEFT:  2.00D  GRAD.:     3.375 HEAT:-30.67268
 CYCLE:    97 TIME:   0.012 TIME LEFT:  2.00D  GRAD.:     2.090 HEAT:-30.68309
 CYCLE:    98 TIME:   0.012 TIME LEFT:  2.00D  GRAD.:     3.649 HEAT:-30.69094
 CYCLE:    99 TIME:   0.011 TIME LEFT:  2.00D  GRAD.:     2.181 HEAT:-30.69475
 CYCLE:   100 TIME:   0.011 TIME LEFT:  2.00D  GRAD.:     1.115 HEAT:-30.69790
 CYCLE:   101 TIME:   0.012 TIME LEFT:  2.00D  GRAD.:     2.390 HEAT:-30.70098
 CYCLE:   102 TIME:   0.011 TIME LEFT:  2.00D  GRAD.:     1.756 HEAT:-30.70343
 CYCLE:   103 TIME:   0.012 TIME LEFT:  2.00D  GRAD.:     1.385 HEAT:-30.70670
 CYCLE:   104 TIME:   0.012 TIME LEFT:  2.00D  GRAD.:     1.803 HEAT:-30.70905
 CYCLE:   105 TIME:   0.011 TIME LEFT:  2.00D  GRAD.:     1.209 HEAT:-30.71074
 CYCLE:   106 TIME:   0.012 TIME LEFT:  2.00D  GRAD.:     1.201 HEAT:-30.71283
 CYCLE:   107 TIME:   0.012 TIME LEFT:  2.00D  GRAD.:     1.484 HEAT:-30.71537
 CYCLE:   108 TIME:   0.012 TIME LEFT:  2.00D  GRAD.:     1.328 HEAT:-30.71708
 CYCLE:   109 TIME:   0.012 TIME LEFT:  2.00D  GRAD.:     1.224 HEAT:-30.71879
 CYCLE:   110 TIME:   0.012 TIME LEFT:  2.00D  GRAD.:     1.196 HEAT:-30.71999
 CYCLE:   111 TIME:   0.011 TIME LEFT:  2.00D  GRAD.:     1.070 HEAT:-30.72125
 CYCLE:   112 TIME:   0.012 TIME LEFT:  2.00D  GRAD.:     1.150 HEAT:-30.72279
 CYCLE:   113 TIME:   0.012 TIME LEFT:  2.00D  GRAD.:     1.126 HEAT:-30.72419
 CYCLE:   114 TIME:   0.012 TIME LEFT:  2.00D  GRAD.:     0.936 HEAT:-30.72552
 CYCLE:   115 TIME:   0.012 TIME LEFT:  2.00D  GRAD.:     1.142 HEAT:-30.72641
 CYCLE:   116 TIME:   0.011 TIME LEFT:  2.00D  GRAD.:     0.908 HEAT:-30.72729
 CYCLE:   117 TIME:   0.011 TIME LEFT:  2.00D  GRAD.:     0.893 HEAT:-30.72808
 CYCLE:   118 TIME:   0.012 TIME LEFT:  2.00D  GRAD.:     0.674 HEAT:-30.72875
 CYCLE:   119 TIME:   0.012 TIME LEFT:  2.00D  GRAD.:     0.567 HEAT:-30.72925
 CYCLE:   120 TIME:   0.011 TIME LEFT:  2.00D  GRAD.:     0.528 HEAT:-30.72968
 CYCLE:   121 TIME:   0.011 TIME LEFT:  2.00D  GRAD.:     0.555 HEAT:-30.73013
 CYCLE:   122 TIME:   0.011 TIME LEFT:  2.00D  GRAD.:     0.830 HEAT:-30.73065
 CYCLE:   123 TIME:   0.011 TIME LEFT:  2.00D  GRAD.:     0.732 HEAT:-30.73124
 CYCLE:   124 TIME:   0.012 TIME LEFT:  2.00D  GRAD.:     1.205 HEAT:-30.73347
 CYCLE:   125 TIME:   0.011 TIME LEFT:  2.00D  GRAD.:     1.109 HEAT:-30.73455
 CYCLE:   126 TIME:   0.012 TIME LEFT:  2.00D  GRAD.:     1.082 HEAT:-30.73707
 CYCLE:   127 TIME:   0.013 TIME LEFT:  2.00D  GRAD.:     3.239 HEAT:-30.73736
 CYCLE:   128 TIME:   0.012 TIME LEFT:  2.00D  GRAD.:     1.438 HEAT:-30.74130
 CYCLE:   129 TIME:   0.011 TIME LEFT:  2.00D  GRAD.:     1.153 HEAT:-30.74286
 CYCLE:   130 TIME:   0.013 TIME LEFT:  2.00D  GRAD.:     4.635 HEAT:-30.73684
 CYCLE:   131 TIME:   0.011 TIME LEFT:  2.00D  GRAD.:     0.974 HEAT:-30.74534
 CYCLE:   132 TIME:   0.012 TIME LEFT:  2.00D  GRAD.:     1.222 HEAT:-30.74652
 CYCLE:   133 TIME:   0.012 TIME LEFT:  2.00D  GRAD.:     0.948 HEAT:-30.74731
 CYCLE:   134 TIME:   0.012 TIME LEFT:  2.00D  GRAD.:     1.381 HEAT:-30.74825
 CYCLE:   135 TIME:   0.012 TIME LEFT:  2.00D  GRAD.:     1.589 HEAT:-30.74897
 CYCLE:   136 TIME:   0.011 TIME LEFT:  2.00D  GRAD.:     1.413 HEAT:-30.74940
 CYCLE:   137 TIME:   0.011 TIME LEFT:  2.00D  GRAD.:     0.629 HEAT:-30.75040
 CYCLE:   138 TIME:   0.012 TIME LEFT:  2.00D  GRAD.:     0.764 HEAT:-30.75055
 CYCLE:   139 TIME:   0.012 TIME LEFT:  2.00D  GRAD.:     0.728 HEAT:-30.75091
 CYCLE:   140 TIME:   0.012 TIME LEFT:  2.00D  GRAD.:     0.578 HEAT:-30.75126
 CYCLE:   141 TIME:   0.011 TIME LEFT:  2.00D  GRAD.:     0.415 HEAT:-30.75143
 CYCLE:   142 TIME:   0.012 TIME LEFT:  2.00D  GRAD.:     0.485 HEAT:-30.75161
 CYCLE:   143 TIME:   0.051 TIME LEFT:  2.00D  GRAD.:     5.459 HEAT:-30.74550
 CYCLE:   144 TIME:   0.011 TIME LEFT:  2.00D  GRAD.:     0.954 HEAT:-30.75130
 CYCLE:   145 TIME:   0.013 TIME LEFT:  2.00D  GRAD.:     1.380 HEAT:-30.75133
 CYCLE:   146 TIME:   0.012 TIME LEFT:  2.00D  GRAD.:     1.430 HEAT:-30.75153
 CYCLE:   147 TIME:   0.012 TIME LEFT:  2.00D  GRAD.:     0.628 HEAT:-30.75238
 CYCLE:   148 TIME:   0.012 TIME LEFT:  2.00D  GRAD.:     0.506 HEAT:-30.75252
 CYCLE:   149 TIME:   0.013 TIME LEFT:  2.00D  GRAD.:     2.175 HEAT:-30.75034
 CYCLE:   150 TIME:   0.012 TIME LEFT:  2.00D  GRAD.:     0.954 HEAT:-30.75278
 CYCLE:   151 TIME:   0.011 TIME LEFT:  2.00D  GRAD.:     0.622 HEAT:-30.75277
 CYCLE:   152 TIME:   0.012 TIME LEFT:  2.00D  GRAD.:     0.269 HEAT:-30.75294
 CYCLE:   153 TIME:   0.013 TIME LEFT:  2.00D  GRAD.:     1.125 HEAT:-30.75245
 CYCLE:   154 TIME:   0.011 TIME LEFT:  2.00D  GRAD.:     0.647 HEAT:-30.75286
 CYCLE:   155 TIME:   0.012 TIME LEFT:  2.00D  GRAD.:     0.236 HEAT:-30.75299
 CYCLE:   156 TIME:   0.012 TIME LEFT:  2.00D  GRAD.:     1.327 HEAT:-30.75162
 CYCLE:   157 TIME:   0.012 TIME LEFT:  2.00D  GRAD.:     1.417 HEAT:-30.75089
 CYCLE:   158 TIME:   0.012 TIME LEFT:  2.00D  GRAD.:     3.793 HEAT:-30.74460
 CYCLE:   159 TIME:   0.011 TIME LEFT:  2.00D  GRAD.:     0.578 HEAT:-30.75112
 CYCLE:   160 TIME:   0.012 TIME LEFT:  2.00D  GRAD.:     2.311 HEAT:-30.74686
 CYCLE:   161 TIME:   0.012 TIME LEFT:  2.00D  GRAD.:     0.623 HEAT:-30.75077
 CYCLE:   162 TIME:   0.012 TIME LEFT:  2.00D  GRAD.:     0.430 HEAT:-30.75176
 CYCLE:   163 TIME:   0.012 TIME LEFT:  2.00D  GRAD.:     0.377 HEAT:-30.75218
 CYCLE:   164 TIME:   0.011 TIME LEFT:  2.00D  GRAD.:     0.190 HEAT:-30.75240
 CYCLE:   165 TIME:   0.012 TIME LEFT:  2.00D  GRAD.:     0.826 HEAT:-30.75259
 CYCLE:   166 TIME:   0.012 TIME LEFT:  2.00D  GRAD.:     0.181 HEAT:-30.75269
 CYCLE:   167 TIME:   0.013 TIME LEFT:  2.00D  GRAD.:     0.783 HEAT:-30.75099
 CYCLE:   168 TIME:   0.011 TIME LEFT:  2.00D  GRAD.:     0.358 HEAT:-30.75221
 CYCLE:   169 TIME:   0.013 TIME LEFT:  2.00D  GRAD.:     1.525 HEAT:-30.75165
 CYCLE:   170 TIME:   0.012 TIME LEFT:  2.00D  GRAD.:     0.214 HEAT:-30.75265
 CYCLE:   171 TIME:   0.013 TIME LEFT:  2.00D  GRAD.:     0.660 HEAT:-30.75133
 CYCLE:   172 TIME:   0.011 TIME LEFT:  2.00D  GRAD.:     0.375 HEAT:-30.75204
 CYCLE:   173 TIME:   0.013 TIME LEFT:  2.00D  GRAD.:     0.608 HEAT:-30.75257
 CYCLE:   174 TIME:   0.012 TIME LEFT:  2.00D  GRAD.:     0.169 HEAT:-30.75256
 CYCLE:   175 TIME:   0.012 TIME LEFT:  2.00D  GRAD.:     0.714 HEAT:-30.75119
 CYCLE:   176 TIME:   0.012 TIME LEFT:  2.00D  GRAD.:     0.298 HEAT:-30.75219
 CYCLE:   177 TIME:   0.012 TIME LEFT:  2.00D  GRAD.:     0.234 HEAT:-30.75272
 CYCLE:   178 TIME:   0.012 TIME LEFT:  2.00D  GRAD.:     0.115 HEAT:-30.75268
 CYCLE:   179 TIME:   0.041 TIME LEFT:  2.00D  GRAD.:     3.165 HEAT:-30.74926
 CYCLE:   180 TIME:   0.011 TIME LEFT:  2.00D  GRAD.:     0.363 HEAT:-30.75244
 CYCLE:   181 TIME:   0.011 TIME LEFT:  2.00D  GRAD.:     0.412 HEAT:-30.75263
 CYCLE:   182 TIME:   0.012 TIME LEFT:  2.00D  GRAD.:     0.113 HEAT:-30.75265
 CYCLE:   183 TIME:   0.012 TIME LEFT:  2.00D  GRAD.:     1.847 HEAT:-30.74961
 CYCLE:   184 TIME:   0.011 TIME LEFT:  2.00D  GRAD.:     0.224 HEAT:-30.75257
 CYCLE:   185 TIME:   0.012 TIME LEFT:  2.00D  GRAD.:     0.435 HEAT:-30.75258
 CYCLE:   186 TIME:   0.012 TIME LEFT:  2.00D  GRAD.:     0.124 HEAT:-30.75268
 CYCLE:   187 TIME:   0.012 TIME LEFT:  2.00D  GRAD.:     0.586 HEAT:-30.75217
 CYCLE:   188 TIME:   0.012 TIME LEFT:  2.00D  GRAD.:     0.198 HEAT:-30.75254
 CYCLE:   189 TIME:   0.011 TIME LEFT:  2.00D  GRAD.:     0.354 HEAT:-30.75262
 CYCLE:   190 TIME:   0.012 TIME LEFT:  2.00D  GRAD.:     0.046 HEAT:-30.75264

     RMS GRADIENT =  0.04585  IS LESS THAN CUTOFF =  0.10000



 -------------------------------------------------------------------------------
 PM3 CHARGE=0 GNORM=0.100  static




     GEOMETRY OPTIMISED USING EIGENVECTOR FOLLOWING (EF).     
     SCF FIELD WAS ACHIEVED                                   


                              PM3 CALCULATION
                                                       MOPAC2012 (Version: 12.239L)
                                                       Sat Jan 12 10:59:04 2013
                                                       No. of days left = 227




          FINAL HEAT OF FORMATION =        -30.75264 KCAL/MOL =    -128.66905 KJ/MOL


          TOTAL ENERGY            =      -2280.83561 EV
          ELECTRONIC ENERGY       =     -13192.29590 EV  POINT GROUP:     C1  
          CORE-CORE REPULSION     =      10911.46028 EV
          COSMO AREA              =        222.87 SQUARE ANGSTROMS
          COSMO VOLUME            =        235.55 CUBIC ANGSTROMS

          GRADIENT NORM           =          0.04585
          IONIZATION POTENTIAL    =          9.279874 EV
          HOMO LUMO ENERGIES (EV) =         -9.280 -0.603
          NO. OF FILLED LEVELS    =         37
          MOLECULAR WEIGHT        =        198.221

          MOLECULAR DIMENSIONS (Angstroms)

            Atom       Atom       Distance
            H    22    H    19     9.63025
            H    17    O     8     5.63553
            H    20    H    24     4.30909


          SCF CALCULATIONS        =        204
          COMPUTATION TIME        =          2.372 SECONDS




   ATOM   CHEMICAL          X               Y               Z
  NUMBER   SYMBOL      (ANGSTROMS)     (ANGSTROMS)     (ANGSTROMS)
 
     1       C         -0.86892563  *   1.04317981  *   0.46392951  *
     2       C          0.42796320  *   1.06515821  *   0.94336923  *
     3       C          1.23709735  *  -0.06947616  *   0.83279911  *
     4       C          0.75298142  *  -1.22257144  *   0.24491119  *
     5       C         -0.56848636  *  -1.24882389  *  -0.24540700  *
     6       C         -1.39401519  *  -0.10857392  *  -0.13808456  *
     7       C         -2.78085577  *  -0.13047547  *  -0.65156396  *
     8       O         -3.23976464  *  -1.13676338  *  -1.18145276  *
     9       C         -3.61087813  *   1.10192609  *  -0.51185621  *
    10       C         -4.35006439  *   1.31359609  *   0.65150909  *
    11       C         -5.14034028  *   2.45203015  *   0.76792863  *
    12       C         -5.19400189  *   3.37435431  *  -0.27226483  *
    13       C         -4.45892625  *   3.15882117  *  -1.43350120  *
    14       C         -3.66756671  *   2.02189500  *  -1.55815071  *
    15       O         -0.96503817  *  -2.41573499  *  -0.80676555  *
    16       H         -1.50395258  *   1.93426512  *   0.55221970  *
    17       H          0.82418642  *   1.97207235  *   1.41120556  *
    18       H          2.26298015  *  -0.04244190  *   1.21597259  *
    19       H          1.38482781  *  -2.11407716  *   0.15670266  *
    20       H         -4.31176190  *   0.58342208  *   1.46730471  *
    21       H         -5.72352956  *   2.61953931  *   1.67951384  *
    22       H         -5.81827882  *   4.26910123  *  -0.17810856  *
    23       H         -4.50524429  *   3.88265042  *  -2.25392154  *
    24       H         -3.09526814  *   1.84696165  *  -2.47576880  *
    25       H         -1.87578401  *  -2.31726788  *  -1.10338973  *

           Empirical Formula: C13 H10 O2  =    25 atoms



      MOLECULAR POINT GROUP   :   C1  


                  EIGENVALUES  
 -41.83746 -39.58506 -37.12800 -36.40598 -31.31850 -29.99051 -29.10998 -28.39367
 -23.84778 -22.36085 -21.93172 -21.42104 -20.30371 -18.89267 -18.13919 -17.66437
 -16.93650 -16.86706 -16.00026 -15.79175 -15.19407 -15.08464 -15.04007 -14.96535
 -14.52118 -14.03744 -13.53423 -13.41662 -13.12923 -12.75299 -12.73373 -12.56428
 -10.98055 -10.15751 -10.09799 -10.09174  -9.27987  -0.60327  -0.09880   0.05331
   0.26121   1.03570   1.98597   2.42769   2.61230   2.70721   2.96180   3.08147
   3.13213   3.18708   3.19397   3.43875   3.58068   3.69424   3.72980   3.82991
   4.22663   4.62167   4.62586   4.65942   4.68964   4.90843   4.94761   5.04320
   5.47272   5.74069   5.91825   5.92601   6.14609   6.65919


              NET ATOMIC CHARGES AND DIPOLE CONTRIBUTIONS

  ATOM NO.   TYPE          CHARGE      No. of ELECS.   s-Pop       p-Pop       
    1          C          -0.009319        4.0093     1.17430     2.83502
    2          C          -0.172287        4.1723     1.18077     2.99152
    3          C          -0.022620        4.0226     1.17632     2.84630
    4          C          -0.178508        4.1785     1.18034     2.99817
    5          C           0.198016        3.8020     1.16093     2.64106
    6          C          -0.289429        4.2894     1.19078     3.09865
    7          C           0.410001        3.5900     1.16796     2.42204
    8          O          -0.350061        6.3501     1.86341     4.48665
    9          C          -0.142873        4.1429     1.18518     2.95770
   10          C          -0.068229        4.0682     1.17484     2.89339
   11          C          -0.103904        4.1039     1.18012     2.92378
   12          C          -0.087266        4.0873     1.18007     2.90719
   13          C          -0.103776        4.1038     1.18017     2.92360
   14          C          -0.066338        4.0663     1.17481     2.89153
   15          O          -0.254324        6.2543     1.79340     4.46092
   16          H           0.111594        0.8884     0.88841
   17          H           0.111083        0.8889     0.88892
   18          H           0.101409        0.8986     0.89859
   19          H           0.126946        0.8731     0.87305
   20          H           0.110548        0.8895     0.88945
   21          H           0.107373        0.8926     0.89263
   22          H           0.105271        0.8947     0.89473
   23          H           0.107400        0.8926     0.89260
   24          H           0.110697        0.8893     0.88930
   25          H           0.248596        0.7514     0.75140
 DIPOLE           X         Y         Z       TOTAL
 POINT-CHG.     0.676     2.469     1.121     2.795
 HYBRID        -0.429     0.429     0.001     0.606
 SUM            0.248     2.898     1.122     3.118


          CARTESIAN COORDINATES 

    NO.       ATOM               X         Y         Z

     1         C                 -0.8689    1.0432    0.4639
     2         C                  0.4280    1.0652    0.9434
     3         C                  1.2371   -0.0695    0.8328
     4         C                  0.7530   -1.2226    0.2449
     5         C                 -0.5685   -1.2488   -0.2454
     6         C                 -1.3940   -0.1086   -0.1381
     7         C                 -2.7809   -0.1305   -0.6516
     8         O                 -3.2398   -1.1368   -1.1815
     9         C                 -3.6109    1.1019   -0.5119
    10         C                 -4.3501    1.3136    0.6515
    11         C                 -5.1403    2.4520    0.7679
    12         C                 -5.1940    3.3744   -0.2723
    13         C                 -4.4589    3.1588   -1.4335
    14         C                 -3.6676    2.0219   -1.5582
    15         O                 -0.9650   -2.4157   -0.8068
    16         H                 -1.5040    1.9343    0.5522
    17         H                  0.8242    1.9721    1.4112
    18         H                  2.2630   -0.0424    1.2160
    19         H                  1.3848   -2.1141    0.1567
    20         H                 -4.3118    0.5834    1.4673
    21         H                 -5.7235    2.6195    1.6795
    22         H                 -5.8183    4.2691   -0.1781
    23         H                 -4.5052    3.8827   -2.2539
    24         H                 -3.0953    1.8470   -2.4758
    25         H                 -1.8758   -2.3173   -1.1034


          ATOMIC ORBITAL ELECTRON POPULATIONS

   1.17430   0.95164   0.95323   0.93014   1.18077   0.95898   0.98766   1.04488
   1.17632   0.97444   0.93140   0.94045   1.18034   0.95884   0.99648   1.04285
   1.16093   0.91677   0.84928   0.87501   1.19078   0.97865   0.98382   1.13618
   1.16796   0.84161   0.85109   0.72934   1.86341   1.74670   1.37769   1.36225
   1.18518   1.00849   0.97520   0.97401   1.17484   0.96119   0.97220   0.96000
   1.18012   0.98677   0.95460   0.98241   1.18007   0.98009   0.98096   0.94614
   1.18017   0.97455   0.97380   0.97525   1.17481   0.98171   0.94419   0.96563
   1.79340   1.40997   1.32138   1.72957   0.88841   0.88892   0.89859   0.87305
   0.88945   0.89263   0.89473   0.89260   0.88930   0.75140
 ******************** FINITE-FIELD POLARIZABILITIES ********************

    THE F-F METHOD IS PERFORMED USING BOTH AN ENERGY
    AND DIPOLE MOMENT EXPANSION.  THESE RESULTS ARE
    LISTED BELOW AS "H.o.F." AND "Dipole", RESPECTIVELY.

          MOLECULAR WEIGHT =  198.22



          ROTATIONAL CONSTANTS IN CM(-1)

          A =    0.04319731   B =    0.01269461   C =    0.01093678



           PRINCIPAL MOMENTS OF INERTIA IN UNITS OF 10**(-40)*GRAM-CM**2

          A =      648.0212   B =     2205.0912   C =     2559.5089


 ROTATION MATRIX FOR ORIENTATION OF MOLECULE:

         0.810126    0.480850   -0.335378
        -0.579467    0.743578   -0.333631
         0.088953    0.464624    0.881029


          CARTESIAN COORDINATES 

    NO.       ATOM         X         Y         Z

     1         C        0.8915    1.3441   -0.0305
     2         C        1.9720    2.2068   -0.0504
     3         C        3.2752    1.7008   -0.0406
     4         C        3.4989    0.3375   -0.0115
     5         C        2.3999   -0.5453    0.0085
     6         C        1.0799   -0.0445   -0.0005
     7         C       -0.0766   -0.9662    0.0195
     8         O        0.0876   -2.1814    0.0423
     9         C       -1.4507   -0.3841    0.0098
    10         C       -2.0687   -0.0416    1.2121
    11         C       -3.3583    0.4790    1.1998
    12         C       -4.0287    0.6557   -0.0063
    13         C       -3.4116    0.3094   -1.2040
    14         C       -2.1228   -0.2134   -1.1999
    15         O        2.7049   -1.8645    0.0362
    16         H       -0.1315    1.7424   -0.0370
    17         H        1.8091    3.2891   -0.0737
    18         H        4.1247    2.3922   -0.0561
    19         H        4.5195   -0.0626   -0.0037
    20         H       -1.5420   -0.1871    2.1616
    21         H       -3.8467    0.7467    2.1427
    22         H       -5.0446    1.0646   -0.0125
    23         H       -3.9416    0.4442   -2.1528
    24         H       -1.6394   -0.4946   -2.1420
    25         H        1.8836   -2.3670    0.0475


 ENERGY OF "REORIENTED" SYSTEM WITHOUT FIELD:      -30.75263 Kcal/mol


 APPLIED ELECTRIC FIELD MAGNITUDE:         0.10284 VOLTS PER ANGSTROM
    Step  1 of 36 done (+X)
    Step  2 of 36 done (-X)
    Step  3 of 36 done (+2X)
    Step  4 of 36 done (-2X)
    Step  5 of 36 done (+Y)
    Step  6 of 36 done (-Y)
    Step  7 of 36 done (+2Y)
    Step  8 of 36 done (-2Y)
    Step  9 of 36 done (+Y+X)
    Step 10 of 36 done (+Y-X)
    Step 11 of 36 done (-Y-X)
    Step 12 of 36 done (-Y+X)
    Step 13 of 36 done (+2Y+2X)
    Step 14 of 36 done (+2Y-2X)
    Step 15 of 36 done (-2Y-2X)
    Step 16 of 36 done (-2Y+2X)
    Step 17 of 36 done (+Z)
    Step 18 of 36 done (-Z)
    Step 19 of 36 done (+2Z)
    Step 20 of 36 done (-2Z)
    Step 21 of 36 done (+Z+X)
    Step 22 of 36 done (+Z-X)
    Step 23 of 36 done (-Z-X)
    Step 24 of 36 done (-Z+X)
    Step 25 of 36 done (+2Z+2X)
    Step 26 of 36 done (+2Z-2X)
    Step 27 of 36 done (-2Z-2X)
    Step 28 of 36 done (-2Z+2X)
    Step 29 of 36 done (+Z+Y)
    Step 30 of 36 done (+Z-Y)
    Step 31 of 36 done (-Z-Y)
    Step 32 of 36 done (-Z+Y)
    Step 33 of 36 done (+2Z+2Y)
    Step 34 of 36 done (+2Z-2Y)
    Step 35 of 36 done (-2Z-2Y)
    Step 36 of 36 done (-2Z+2Y)


 ****************************** DIPOLE ******************************


                     H.o.F.         Dipole

     X              0.542490       0.542569
     Y             -1.099766      -1.099700
     X              0.024346       0.024325


 MAGNITUDE:         1.226529       1.226504  (A.U.)
                    3.117525       3.117462  (DEBYE)


 ****************************** POLARIZABILITY ********************



 Polarizability Tensor from Heat of Formation:


                     1          2          3
 ------------------------------------------
          1 166.048797
          2 -12.411357 154.102282
          3   1.320698   1.637738 144.875103




    ROOT NO.    1           2           3

           143.37925   147.79534   173.85160
  
         1  -0.31506    -0.42822     0.84697
         2  -0.48891    -0.69167    -0.53157
         3   0.81345    -0.58157     0.00856

 Polarizability Tensor from Dipole Moment:


                     1          2          3
 ------------------------------------------
          1 166.027093
          2 -12.471256 154.097230
          3   1.378750   1.625756 144.867541




    ROOT NO.    1           2           3

           143.33182   147.77042   173.88962
  
         1  -0.32001    -0.42570     0.84639
         2  -0.49290    -0.68814    -0.53246
         3   0.80910    -0.58758     0.01038


 Average Polarizability from:     H.o.F         Dipole
                              155.008728     154.997288  A.U.
                               22.969193      22.967498  ANG.**3
                            4.593715D-23   4.593376D-23  ESU



 TOTAL CPU TIME:             2.60 SECONDS

 == MOPAC DONE ==
